
 Working directory              : /tmp/trushin/molpro.jjlRb3zbNw/
 Global scratch directory       : /tmp/trushin/molpro.jjlRb3zbNw/
 Wavefunction directory         : /home/trushin/wfu/
 Main file repository           : /tmp/trushin/molpro.jjlRb3zbNw/

 id        : chemie

 Nodes     nprocs
 tccd107      1
 GA implementation: MPI file
 GA implementation (serial work in mppx): MPI file

 Using customized tuning parameters: mindgm=1; mindgv=20; mindgc=4; mindgr=1; noblas=0; minvec=7
 default implementation of scratch files=df  


 Variables initialized (1042), CPU time= 0.00 sec
 basis={
 default,aug-cc-pwCV5Z                                                           ! orbital basis
 set,oep;default,aug-cc-pVTZ/mp2fit                                              ! OEP basis
 }
 
 symmetry,nosym                                                                  ! USCEXX does not use symmetry
 
 angstrom
 geometry={
 1
 Al    0.0000000    0.0000000   0.000000
 }
 
 charge=0
 spin=1
 
 df-uhf,maxit=0
 
 acfd;uscexx,dfit=0,spin_sym=1,thr_fai_oep=5d-3,vhoep=1,fracocc=1,system='Al',energy=1d-10
 Commands initialized (847), CPU time= 0.02 sec, 718 directives.
 Default parameters read. Elapsed time= 0.16 sec

 Checking input...
 Passed
1


                                         ***  PROGRAM SYSTEM MOLPRO  ***
                                       Copyright, TTI GmbH Stuttgart, 2015
                                    Version 2023.3 linked                         


 **********************************************************************************************************************************
 LABEL *                                                                                                                                                                 
  (16 PROC) 64 bit serial version                                                        DATE: 25-Apr-24          TIME: 15:34:04  
 **********************************************************************************************************************************

 SHA1:             da2376a17dd2bbf3f86419769cf86a3f99a84502
 **********************************************************************************************************************************

 Memory per process:      2000 MW
 Total memory per node:   2000 MW

 GA preallocation disabled
 GA check disabled

 Variable memory set to 2000.0 MW

 SETTING BASIS          =    AUG-CC-PWCV5Z
 ZSYMEL=NOSYM
 ZUNIT=ANG
 

 Geometry recognized as XYZ

 SETTING CHARGE         =      0.0000000D+00                                  
 SETTING SPIN           =         1.00000000                                  


 Recomputing integrals since basis changed


 Using spherical harmonics

 Library entry AL     S aug-cc-pwCV5Z        selected for orbital group  1
 Library entry AL     P aug-cc-pwCV5Z        selected for orbital group  1
 Library entry AL     D aug-cc-pwCV5Z        selected for orbital group  1
 Library entry AL     F aug-cc-pwCV5Z        selected for orbital group  1
 Library entry AL     G aug-cc-pwCV5Z        selected for orbital group  1
 Library entry AL     H aug-cc-pwCV5Z        selected for orbital group  1


 PROGRAM * SEWARD (Integral evaluation for generally contracted gaussian basis sets)     Author: Roland Lindh, 1990

 Geometry written to block  1 of record 700

 Orientation using atomic masses  
 Molecule type: Atom
 Rotational constants:       0.0000000      0.0000000      0.0000000 GHz  (calculated with average atomic masses)

 Point group  C1  



 ATOMIC COORDINATES

 NR  ATOM    CHARGE       X              Y              Z

   1  AL     13.00    0.000000000    0.000000000    0.000000000

 NUCLEAR CHARGE:                   13
 NUMBER OF PRIMITIVE AOS:         322
 NUMBER OF SYMMETRY AOS:          232
 NUMBER OF CONTRACTIONS:          217   (  217A   )
 NUMBER OF INNER CORE ORBITALS:     1   (    1A   )
 NUMBER OF OUTER CORE ORBITALS:     4   (    4A   )
 NUMBER OF VALENCE ORBITALS:        4   (    4A   )


 NUCLEAR REPULSION ENERGY    0.00000000

 
 Library entry AL     S aug-cc-pVTZ-MP2F     selected for OEP group  1
 Library entry AL     P aug-cc-pVTZ-MP2F     selected for OEP group  1
 Library entry AL     D aug-cc-pVTZ-MP2F     selected for OEP group  1
 Library entry AL     F aug-cc-pVTZ-MP2F     selected for OEP group  1
 Library entry AL     G aug-cc-pVTZ-MP2F     selected for OEP group  1
 Basis set:    OEP
 Basis size:   147
 Sphericals:   T

 **********************************************************************************************************************************

 EXTRA SYMMETRY OF AOS IN SYMMETRY 1:   1 1 1 1 1 1 1 1 1 1   1 1 2 3 4 2 3 4 2 3   4 2 3 4 2 3 4 2 3 4   2 3 4 2 3 4 2 3 4 2
                                        3 4 2 3 4 5 6 7 8 9   5 6 7 8 9 5 6 7 8 9   5 6 7 8 9 5 6 7 8 9   5 6 7 8 9 5 6 7 8 9
                                        5 6 7 8 9 5 6 7 8 9  10111213141516101112  13141516101112131415  16101112131415161011
                                       12131415161011121314  15161011121314151617  18192021222324251718  19202122232425171819
                                       20212223242517181920  21222324251718192021  22232425262728293031  32333435362627282930
                                       31323334353626272829  30313233343536

 Eigenvalues of metric

         1 0.412E-05 0.304E-04 0.304E-04 0.304E-04 0.619E-03 0.327E-02 0.638E-02 0.638E-02


 OPERATOR DM      FOR CENTER  0  COORDINATES:    0.000000    0.000000    0.000000


 **********************************************************************************************************************************
 DATASETS  * FILE   NREC   LENGTH (MB)   RECORD NAMES
              1      18       30.30       500      610      700      900      950      970     1000      129      960     1100   
                                          VAR    BASINP    GEOM    SYMINP    ZMAT    AOBASIS   BASIS     P2S    ABASIS      S 
                                         1400     1410     1200     1210     1080     1600     1650     1700   
                                           T        V       H0       H01     AOSYM     SMH    MOLCAS    OPER   

 PROGRAMS   *        TOTAL       INT
 CPU TIMES  *         1.85      1.72
 REAL TIME  *         0.71 SEC
 DISK USED  *        30.69 MB
 **********************************************************************************************************************************


 Program * Unrestricted Hartree-Fock

 Basis set AWCV5Z/JKFIT generated.       Number of basis functions:   230 
 Coulomb and exchange fitting
 Thresholds for fitting:       THRAO_COUL= 1.0D-15    THRAO_EXCH= 1.0D-13    THRMO= 1.0D-12    THRPROD= 1.0D-12    THRASM= 1.0D-12
                               THR2HLF=    1.0D-12

 Basis set AWCV5Z-JKFIT loaded. Number of basis functions: 230
 
 Orbital guess generated from atomic densities.
 Using density fitting in orbital guess
 

 Initial alpha occupancy:   7
 Initial beta  occupancy:   6

 Elapsed time for starting guess:      1.47 sec

 NELEC=   13   SYM=1   MS2=1   THRE=1.0D-08   THRD=3.2D-06   THRG=3.2D-06  HFMA2=F  DIIS_START=2   DIIS_MAX=10   DIIS_INCORE=F

 Initial level shifts:    0.20 (ALPHA)    0.20 (BETA)

 ITER         ETOT            DE          GRAD         DDIFF    DIIS  NEXP   TIME(IT)  TIME(TOT)  DIAG
   1   -241.86801961  -241.86801961     0.00D+00     0.00D+00     0     0       2.33      3.80    start

 Orbitals not optimized (maxit=1)

 Final alpha occupancy:   7
 Final beta  occupancy:   6
 
 !UHF STATE 1.1 Energy               -241.868019610268
  UHF One-electron energy            -335.999550295057
  UHF Two-electron energy              94.131530684790
  UHF Kinetic energy                  241.739749959531
  UHF Nuclear energy                    0.000000000000
  UHF Virial quotient                  -1.000530610505
 
 !UHF STATE 1.1 Dipole moment          -0.00000000    -0.00000000     0.00000000
 Dipole moment /Debye                  -0.00000000    -0.00000000     0.00000000

 EXPECTATION VALUE OF S**2:             0.75000000

 Orbital energies for positive spin:

           1.1          2.1          3.1          4.1          5.1          6.1          7.1          8.1          9.1
    -58.556177    -4.957994    -3.268974    -3.268974    -3.268974    -0.346837    -0.032321    -0.032321    -0.032321

 Orbital energies for negative spin:

           1.1          2.1          3.1          4.1          5.1          6.1          7.1          8.1
    -58.556177    -4.957994    -3.268974    -3.268974    -3.268974    -0.346837    -0.032321    -0.032321


 HOMO      7.1    -0.032321 =      -0.8795eV
 LUMO      8.1    -0.032321 =      -0.8795eV
 LUMO-HOMO         0.000000 =       0.0000eV

 Orbitals saved in record  2200.2

 Occupation number threshold for pseudo-canonical orbitals: 1.9990 (occupied), 0.0010 (virtual)

 Number of pseudo-canonical occupied orbitals per symmetry:    6
 Number of active natural orbitals per symmetry:               1

 Natural orbitals saved to record    2200.2 (Orbital set 3)

 Orbital spaces for UNO-CAS (Min. occupation: 0.020  Max. occupation: 1.980):

 Closed:        6
 Active:        1


 **********************************************************************************************************************************
 DATASETS  * FILE   NREC   LENGTH (MB)   RECORD NAMES
              1      18       30.30       500      610      700      900      950      970     1000      129      960     1100   
                                          VAR    BASINP    GEOM    SYMINP    ZMAT    AOBASIS   BASIS     P2S    ABASIS      S 
                                         1400     1410     1200     1210     1080     1600     1650     1700   
                                           T        V       H0       H01     AOSYM     SMH    MOLCAS    OPER   

              2       4        2.23       700     1000      520     2200   
                                         GEOM     BASIS   MCVARS     UHF  

 PROGRAMS   *        TOTAL    DF-UHF       INT
 CPU TIMES  *         5.86      4.00      1.72
 REAL TIME  *         1.08 SEC
 DISK USED  *        35.70 MB
 **********************************************************************************************************************************


 Using spherical harmonics

 Library entry AL     S aug-cc-pwCV5Z        selected for orbital group  1
 Library entry AL     P aug-cc-pwCV5Z        selected for orbital group  1
 Library entry AL     D aug-cc-pwCV5Z        selected for orbital group  1
 Library entry AL     F aug-cc-pwCV5Z        selected for orbital group  1
 Library entry AL     G aug-cc-pwCV5Z        selected for orbital group  1
 Library entry AL     H aug-cc-pwCV5Z        selected for orbital group  1


 PROGRAM * SEWARD (Integral evaluation for generally contracted gaussian basis sets)     Author: Roland Lindh, 1990

 Geometry written to block  1 of record 700

 Orientation using atomic masses  
 Molecule type: Atom
 Rotational constants:       0.0000000      0.0000000      0.0000000 GHz  (calculated with average atomic masses)

 Point group  C1  



 ATOMIC COORDINATES

 NR  ATOM    CHARGE       X              Y              Z

   1  AL     13.00    0.000000000    0.000000000    0.000000000

 NUCLEAR CHARGE:                   13
 NUMBER OF PRIMITIVE AOS:         322
 NUMBER OF SYMMETRY AOS:          232
 NUMBER OF CONTRACTIONS:          217   (  217A   )
 NUMBER OF INNER CORE ORBITALS:     1   (    1A   )
 NUMBER OF OUTER CORE ORBITALS:     4   (    4A   )
 NUMBER OF VALENCE ORBITALS:        4   (    4A   )


 NUCLEAR REPULSION ENERGY    0.00000000

 Library entry AL     S aug-cc-pVTZ-MP2F     selected for OEP group  1
 Library entry AL     P aug-cc-pVTZ-MP2F     selected for OEP group  1
 Library entry AL     D aug-cc-pVTZ-MP2F     selected for OEP group  1
 Library entry AL     F aug-cc-pVTZ-MP2F     selected for OEP group  1
 Library entry AL     G aug-cc-pVTZ-MP2F     selected for OEP group  1
 Basis set:    OEP
 Basis size:   147
 Sphericals:   T
 EXTRA SYMMETRY OF AOS IN SYMMETRY 1:   1 1 1 1 1 1 1 1 1 1   1 1 2 3 4 2 3 4 2 3   4 2 3 4 2 3 4 2 3 4   2 3 4 2 3 4 2 3 4 2
                                        3 4 2 3 4 5 6 7 8 9   5 6 7 8 9 5 6 7 8 9   5 6 7 8 9 5 6 7 8 9   5 6 7 8 9 5 6 7 8 9
                                        5 6 7 8 9 5 6 7 8 9  10111213141516101112  13141516101112131415  16101112131415161011
                                       12131415161011121314  15161011121314151617  18192021222324251718  19202122232425171819
                                       20212223242517181920  21222324251718192021  22232425262728293031  32333435362627282930
                                       31323334353626272829  30313233343536

 Eigenvalues of metric

         1 0.412E-05 0.304E-04 0.304E-04 0.304E-04 0.619E-03 0.327E-02 0.638E-02 0.638E-02


 Contracted 2-electron integrals neglected if value below      1.0D-12
 AO integral compression algorithm  1   Integral accuracy      1.0D-12

     250.872 MB (compressed) written to integral file ( 13.0%)


 NUMBER OF SORTED TWO-ELECTRON INTEGRALS:  279744031.     BUFFER LENGTH:  32768
 NUMBER OF SEGMENTS:  18  SEGMENT LENGTH:   15999762      RECORD LENGTH: 524288

 Memory used in sort:      16.56 MW

 SORT1 READ   241177324. AND WROTE    24643416. INTEGRALS IN     83 RECORDS. CPU TIME:     1.89 SEC, REAL TIME:     0.77 SEC
 SORT2 READ    24643416. AND WROTE   279744031. INTEGRALS IN    957 RECORDS. CPU TIME:     1.08 SEC, REAL TIME:     1.16 SEC

 FILE SIZES:   FILE 1:   282.6 MBYTE,  FILE 4:   348.2 MBYTE,   TOTAL:    630.8 MBYTE

 OPERATOR DM      FOR CENTER  0  COORDINATES:    0.000000    0.000000    0.000000


 **********************************************************************************************************************************
 DATASETS  * FILE   NREC   LENGTH (MB)   RECORD NAMES
              1      19      172.02       500      610      700      900      950      970     1000      129      960     1100   
                                          VAR    BASINP    GEOM    SYMINP    ZMAT    AOBASIS   BASIS     P2S    ABASIS      S 
                                         1400     1410     1200     1210     1080     1600     1650     1300     1700   
                                           T        V       H0       H01     AOSYM     SMH    MOLCAS    ERIS     OPER   

              2       4        2.23       700     1000      520     2200   
                                         GEOM     BASIS   MCVARS     UHF  

 PROGRAMS   *        TOTAL       INT    DF-UHF       INT
 CPU TIMES  *        51.66     45.77      4.00      1.72
 REAL TIME  *         8.30 SEC
 DISK USED  *       603.94 MB
 **********************************************************************************************************************************

 
 PROGRAM * USCEXX      (unrestricted self-consistent exact-exchange)
 
 Authors:
 A. Hesselmann, P. Bleiziffer, D. Schmidtel, J. Erhard, A. Thierbach, E. Trushin
 
 Read Orbital Records from 2200.2
 Write Orbital Records to 2201.2
 Use density fitting to evaluate the Coulomb and exchange integrals: F
 Maximum number of iterations:  30
 Minimum number of iterations:   3
 DIIS is used:
 Maximum size of DIIS matrix:  10
 Threshold for energy convergence:   1.000E-10
 Threshold for density convergence:   0.000E+00
 Thresholds for processing of OEP basis set:
 thr_symmetry:   0.000E+00
 thr_overlap_oep:     1.000E-99
 thr_fai_oep:     5.000E-03
 Threshold for eigenvalue difference in calculation of Lambda:    1.000E-06
 Threshold for eigenproblem solver of OEP equation:    1.000E-99
 Solver for eigenproblems: GTSVD
 Spin-symmetrization: T
 Constucting Hartree potential in OEP basis: T
 Fermi-Amaldi as reference potential: T
 HOMO condition: F
 The same reference potential for alpha and beta: F
 l_swap: F
 l_swap2: F
 l_frac_occ: T
 system: Al                              

 Molecular orbitals read from record     2200.2  Type=UHF/ALPHA  
 Orbital energies read from record       2200.2  Type=UHF/ALPHA  
 Density matrix read from record         2200.2  Type=UHF/CHARGE  
 Molecular orbitals read from record     2200.2  Type=UHF/BETA  
 Orbital energies read from record       2200.2  Type=UHF/BETA  
 Density matrix read from record         2200.2  Type=UHF/SPIN  
 Occupation numbers read from record     2200.2  Type=UHF/UHF  
 Occupation numbers read from record     2200.2  Type=UHF/UHF  

   ITER        ENERGY            EDIFF       DDIFF       DIIS         TIME
     0     -241.8680191971                                            2.91
     1     -241.8724112500    -0.439E-02   0.503E-02      1          14.88
     2     -241.7821052553     0.903E-01   0.428E-02      2          26.89
     3     -241.8476424122    -0.655E-01   0.179E-02      3          38.95
     4     -241.8654251451    -0.178E-01   0.736E-03      4          50.92
     5     -241.8719534624    -0.653E-02   0.539E-03      5          62.89
     6     -241.8730886478    -0.114E-02   0.280E-03      6          74.87
     7     -241.8731135105    -0.249E-04   0.510E-04      7          87.07
     8     -241.8731222705    -0.876E-05   0.500E-04      8          99.24
     9     -241.8731222702     0.285E-09   0.239E-04      9         111.23
    10     -241.8731223488    -0.786E-07   0.384E-02      9         123.26
    11     -241.8730874153     0.349E-04   0.583E-04      3         135.26
    12     -241.8731231512    -0.357E-04   0.431E-04      4         147.29
    13     -241.8731376021    -0.145E-04   0.279E-02      2         159.26
    14     -241.8731204444     0.172E-04   0.223E-02      3         171.30
    15     -241.8731218622    -0.142E-05   0.837E-03      4         183.29
    16     -241.8731255473    -0.369E-05   0.743E-04      5         195.49
    17     -241.8731228621     0.269E-05   0.781E-04      6         207.71
    18     -241.8731254530    -0.259E-05   0.900E-04      5         219.93
    19     -241.8731248057     0.647E-06   0.441E-04      4         232.00
    20     -241.8731228028     0.200E-05   0.320E-03      4         244.28
    21     -241.8731240577    -0.125E-05   0.380E-02      2         256.35
    22     -241.8731250860    -0.103E-05   0.267E-03      3         268.43
    23     -241.8731234154     0.167E-05   0.347E-02      4         280.48
    24     -241.8731240363    -0.621E-06   0.562E-03      5         292.48
    25     -241.8731231561     0.880E-06   0.179E-03      5         304.38
    26     -241.8731245580    -0.140E-05   0.127E-03      5         316.42
    27     -241.8731243049     0.253E-06   0.310E-04      3         328.30
    28     -241.8731241855     0.119E-06   0.493E-05      3         340.37
    29     -241.8731239581     0.227E-06   0.340E-04      3         352.27
    30     -241.8731244462    -0.488E-06   0.501E-04      3         364.26

 SCF NOT converged in    30 iterations

 USCEXX orbitals written to record    2201.2
 
 !USCEXX Total energy                -241.873124446204
  USCEXX One-electron energy         -336.685649048698
  USCEXX Two-electron energy           94.812524602494
  USCEXX Nuclear energy                 0.000000000000
  USCEXX Coulomb energy               112.893196177227
  USCEXX Exchange energy              -18.080671574733
 
 !USCEXX Dipole moment                 -0.00000000    -0.00000000    -0.00000000
 Dipole moment /Debye                  -0.00000000    -0.00000000    -0.00000000

 EXPECTATION VALUE OF S**2:             0.75000000
 
 USCEXX eigenvalues (alpha)
   1-  10  -0.55556E+02 -0.41690E+01 -0.27413E+01 -0.27387E+01 -0.27385E+01 -0.38916E+00 -0.20919E+00 -0.20876E+00 -0.20590E+00 -0.99099E-01
  11-  17  -0.68180E-01 -0.68159E-01 -0.68064E-01 -0.61523E-01 -0.59182E-01 -0.58237E-01 -0.58220E-01
 
 HOMO (alpha): -0.20919E+00
 LUMO (alpha): -0.20876E+00
 LUMO-HOMO (alpha):  0.42187E-03
 
 USCEXX eigenvalues (beta)
   1-  10  -0.55556E+02 -0.41690E+01 -0.27413E+01 -0.27387E+01 -0.27385E+01 -0.38916E+00 -0.20919E+00 -0.20876E+00 -0.20590E+00 -0.99099E-01
  11-  17  -0.68180E-01 -0.68159E-01 -0.68064E-01 -0.61523E-01 -0.59182E-01 -0.58237E-01 -0.58220E-01
 
 HOMO (beta): -0.38916E+00
 LUMO (beta): -0.20919E+00
 LUMO-HOMO (beta):  0.17998E+00
 
 USCEXX occupation numbers (alpha)
   1-  10   0.10000E+01  0.10000E+01  0.10000E+01  0.10000E+01  0.10000E+01  0.10000E+01  0.50000E+00  0.50000E+00  0.00000E+00  0.00000E+00
  11-  17   0.00000E+00  0.00000E+00  0.00000E+00  0.00000E+00  0.00000E+00  0.00000E+00  0.00000E+00
 
 
 USCEXX occupation numbers (beta)
   1-  10   0.10000E+01  0.10000E+01  0.10000E+01  0.10000E+01  0.10000E+01  0.10000E+01  0.00000E+00  0.00000E+00  0.00000E+00  0.00000E+00
  11-  17   0.00000E+00  0.00000E+00  0.00000E+00  0.00000E+00  0.00000E+00  0.00000E+00  0.00000E+00
 


 **********************************************************************************************************************************
 DATASETS  * FILE   NREC   LENGTH (MB)   RECORD NAMES
              1      19      172.02       500      610      700      900      950      970     1000      129      960     1100   
                                          VAR    BASINP    GEOM    SYMINP    ZMAT    AOBASIS   BASIS     P2S    ABASIS      S 
                                         1400     1410     1200     1210     1080     1600     1650     1300     1700   
                                           T        V       H0       H01     AOSYM     SMH    MOLCAS    ERIS     OPER   

              2       5        4.31       700     1000      520     2200     2201   
                                         GEOM     BASIS   MCVARS     UHF    USCEXX    

              4       4       11.97      2900     3000     3100     3200   

 PROGRAMS   *        TOTAL      ACFD       INT    DF-UHF       INT
 CPU TIMES  *      3099.73   3048.04     45.77      4.00      1.72
 REAL TIME  *       381.57 SEC
 DISK USED  *       603.94 MB
 **********************************************************************************************************************************

 ACFD/aug-cc-pWCV5Z energy=   -241.873124446204

            ACFD          DF-UHF
   -241.87312445   -241.86801961
 **********************************************************************************************************************************
 Molpro calculation terminated
