
 Working directory              : /tmp/trushin/molpro.wOqAOQYEh7/
 Global scratch directory       : /tmp/trushin/molpro.wOqAOQYEh7/
 Wavefunction directory         : /home/trushin/wfu/
 Main file repository           : /tmp/trushin/molpro.wOqAOQYEh7/

 id        : chemie

 Nodes     nprocs
 tccd107      1
 GA implementation: MPI file
 GA implementation (serial work in mppx): MPI file

 Using customized tuning parameters: mindgm=1; mindgv=20; mindgc=4; mindgr=1; noblas=0; minvec=7
 default implementation of scratch files=df  


 Variables initialized (1042), CPU time= 0.00 sec
 basis={
 default,aug-cc-pwCV5Z                                                           ! orbital basis
 set,oep;default,aug-cc-pVDZ/mp2fit                                              ! OEP basis
 }
 
 symmetry,nosym                                                                  ! USCEXX does not use symmetry
 
 angstrom
 geometry={
 1
 B    0.0000000    0.0000000   0.000000
 }
 
 charge=0
 spin=1
 
 df-uhf,maxit=0
 
 acfd;uscexx,dfit=0,spin_sym=1,thr_fai_oep=5d-3,vhoep=1,fracocc=1,system='B'
 Commands initialized (847), CPU time= 0.02 sec, 718 directives.
 Default parameters read. Elapsed time= 0.16 sec

 Checking input...
 Passed
1


                                         ***  PROGRAM SYSTEM MOLPRO  ***
                                       Copyright, TTI GmbH Stuttgart, 2015
                                    Version 2023.3 linked                         


 **********************************************************************************************************************************
 LABEL *                                                                                                                                                                 
  (16 PROC) 64 bit serial version                                                        DATE: 25-Apr-24          TIME: 14:47:49  
 **********************************************************************************************************************************

 SHA1:             da2376a17dd2bbf3f86419769cf86a3f99a84502
 **********************************************************************************************************************************

 Memory per process:      2000 MW
 Total memory per node:   2000 MW

 GA preallocation disabled
 GA check disabled

 Variable memory set to 2000.0 MW

 SETTING BASIS          =    AUG-CC-PWCV5Z
 ZSYMEL=NOSYM
 ZUNIT=ANG
 

 Geometry recognized as XYZ

 SETTING CHARGE         =      0.0000000D+00                                  
 SETTING SPIN           =         1.00000000                                  


 Recomputing integrals since basis changed


 Using spherical harmonics

 Library entry B      S aug-cc-pwCV5Z        selected for orbital group  1
 Library entry B      P aug-cc-pwCV5Z        selected for orbital group  1
 Library entry B      D aug-cc-pwCV5Z        selected for orbital group  1
 Library entry B      F aug-cc-pwCV5Z        selected for orbital group  1
 Library entry B      G aug-cc-pwCV5Z        selected for orbital group  1
 Library entry B      H aug-cc-pwCV5Z        selected for orbital group  1


 PROGRAM * SEWARD (Integral evaluation for generally contracted gaussian basis sets)     Author: Roland Lindh, 1990

 Geometry written to block  1 of record 700

 Orientation using atomic masses  
 Molecule type: Atom
 Rotational constants:       0.0000000      0.0000000      0.0000000 GHz  (calculated with average atomic masses)

 Point group  C1  



 ATOMIC COORDINATES

 NR  ATOM    CHARGE       X              Y              Z

   1  B       5.00    0.000000000    0.000000000    0.000000000

 NUCLEAR CHARGE:                    5
 NUMBER OF PRIMITIVE AOS:         268
 NUMBER OF SYMMETRY AOS:          198
 NUMBER OF CONTRACTIONS:          181   (  181A   )
 NUMBER OF INNER CORE ORBITALS:     0   (    0A   )
 NUMBER OF OUTER CORE ORBITALS:     1   (    1A   )
 NUMBER OF VALENCE ORBITALS:        4   (    4A   )


 NUCLEAR REPULSION ENERGY    0.00000000

 
 Library entry B      S aug-cc-pVDZ-MP2F     selected for OEP group  1
 Library entry B      P aug-cc-pVDZ-MP2F     selected for OEP group  1
 Library entry B      D aug-cc-pVDZ-MP2F     selected for OEP group  1
 Library entry B      F aug-cc-pVDZ-MP2F     selected for OEP group  1
 Basis set:    OEP
 Basis size:    72
 Sphericals:   T

 **********************************************************************************************************************************

 EXTRA SYMMETRY OF AOS IN SYMMETRY 1:   1 1 1 1 1 1 1 1 1 1   1 2 3 4 2 3 4 2 3 4   2 3 4 2 3 4 2 3 4 2   3 4 2 3 4 2 3 4 2 3
                                        4 5 6 7 8 9 5 6 7 8   9 5 6 7 8 9 5 6 7 8   9 5 6 7 8 9 5 6 7 8   9 5 6 7 8 9 5 6 7 8
                                        9101112131415161011  12131415161011121314  15161011121314151610  11121314151610111213
                                       14151617181920212223  24251718192021222324  25171819202122232425  17181920212223242526
                                       27282930313233343536  26272829303132333435  36

 Eigenvalues of metric

         1 0.327E-05 0.195E-03 0.195E-03 0.195E-03 0.498E-03 0.517E-02 0.997E-02 0.233E-01


 OPERATOR DM      FOR CENTER  0  COORDINATES:    0.000000    0.000000    0.000000


 **********************************************************************************************************************************
 DATASETS  * FILE   NREC   LENGTH (MB)   RECORD NAMES
              1      18       29.79       500      610      700      900      950      970     1000      129      960     1100   
                                          VAR    BASINP    GEOM    SYMINP    ZMAT    AOBASIS   BASIS     P2S    ABASIS      S 
                                         1400     1410     1200     1210     1080     1600     1650     1700   
                                           T        V       H0       H01     AOSYM     SMH    MOLCAS    OPER   

 PROGRAMS   *        TOTAL       INT
 CPU TIMES  *         1.89      1.73
 REAL TIME  *         0.68 SEC
 DISK USED  *        30.16 MB
 **********************************************************************************************************************************


 Program * Unrestricted Hartree-Fock

 Basis set AWCV5Z/JKFIT generated.       Number of basis functions:   195 
 Coulomb and exchange fitting
 Thresholds for fitting:       THRAO_COUL= 1.0D-15    THRAO_EXCH= 1.0D-13    THRMO= 1.0D-12    THRPROD= 1.0D-12    THRASM= 1.0D-12
                               THR2HLF=    1.0D-12

 Basis set AWCV5Z-JKFIT loaded. Number of basis functions: 195
 
 Orbital guess generated from atomic densities.
 Using density fitting in orbital guess
 

 Initial alpha occupancy:   3
 Initial beta  occupancy:   2

 Elapsed time for starting guess:      1.03 sec

 NELEC=    5   SYM=1   MS2=1   THRE=1.0D-08   THRD=3.2D-06   THRG=3.2D-06  HFMA2=F  DIIS_START=2   DIIS_MAX=10   DIIS_INCORE=F

 Initial level shifts:    0.20 (ALPHA)    0.20 (BETA)

 ITER         ETOT            DE          GRAD         DDIFF    DIIS  NEXP   TIME(IT)  TIME(TOT)  DIAG
   1    -24.50141621   -24.50141621     0.00D+00     0.00D+00     0     0       1.28      2.31    start

 Orbitals not optimized (maxit=1)

 Final alpha occupancy:   3
 Final beta  occupancy:   2
 
 !UHF STATE 1.1 Energy                -24.501416208694
  UHF One-electron energy             -31.875150360311
  UHF Two-electron energy               7.373734151617
  UHF Kinetic energy                   24.128114208643
  UHF Nuclear energy                    0.000000000000
  UHF Virial quotient                  -1.015471660853
 
 !UHF STATE 1.1 Dipole moment          -0.00000000     0.00000000    -0.00000000
 Dipole moment /Debye                  -0.00000000     0.00000000    -0.00000000

 EXPECTATION VALUE OF S**2:             0.75000000

 Orbital energies for positive spin:

           1.1          2.1          3.1          4.1          5.1
     -7.720940    -0.382173    -0.031473    -0.031473    -0.031473

 Orbital energies for negative spin:

           1.1          2.1          3.1          4.1
     -7.720940    -0.382173    -0.031473    -0.031473


 HOMO      3.1    -0.031473 =      -0.8564eV
 LUMO      4.1    -0.031473 =      -0.8564eV
 LUMO-HOMO         0.000000 =       0.0000eV

 Orbitals saved in record  2200.2

 Occupation number threshold for pseudo-canonical orbitals: 1.9990 (occupied), 0.0010 (virtual)

 Number of pseudo-canonical occupied orbitals per symmetry:    2
 Number of active natural orbitals per symmetry:               1

 Natural orbitals saved to record    2200.2 (Orbital set 3)

 Orbital spaces for UNO-CAS (Min. occupation: 0.020  Max. occupation: 1.980):

 Closed:        2
 Active:        1


 **********************************************************************************************************************************
 DATASETS  * FILE   NREC   LENGTH (MB)   RECORD NAMES
              1      18       29.79       500      610      700      900      950      970     1000      129      960     1100   
                                          VAR    BASINP    GEOM    SYMINP    ZMAT    AOBASIS   BASIS     P2S    ABASIS      S 
                                         1400     1410     1200     1210     1080     1600     1650     1700   
                                           T        V       H0       H01     AOSYM     SMH    MOLCAS    OPER   

              2       4        1.67       700     1000      520     2200   
                                         GEOM     BASIS   MCVARS     UHF  

 PROGRAMS   *        TOTAL    DF-UHF       INT
 CPU TIMES  *         4.36      2.46      1.73
 REAL TIME  *         0.91 SEC
 DISK USED  *        31.62 MB
 **********************************************************************************************************************************


 Using spherical harmonics

 Library entry B      S aug-cc-pwCV5Z        selected for orbital group  1
 Library entry B      P aug-cc-pwCV5Z        selected for orbital group  1
 Library entry B      D aug-cc-pwCV5Z        selected for orbital group  1
 Library entry B      F aug-cc-pwCV5Z        selected for orbital group  1
 Library entry B      G aug-cc-pwCV5Z        selected for orbital group  1
 Library entry B      H aug-cc-pwCV5Z        selected for orbital group  1


 PROGRAM * SEWARD (Integral evaluation for generally contracted gaussian basis sets)     Author: Roland Lindh, 1990

 Geometry written to block  1 of record 700

 Orientation using atomic masses  
 Molecule type: Atom
 Rotational constants:       0.0000000      0.0000000      0.0000000 GHz  (calculated with average atomic masses)

 Point group  C1  



 ATOMIC COORDINATES

 NR  ATOM    CHARGE       X              Y              Z

   1  B       5.00    0.000000000    0.000000000    0.000000000

 NUCLEAR CHARGE:                    5
 NUMBER OF PRIMITIVE AOS:         268
 NUMBER OF SYMMETRY AOS:          198
 NUMBER OF CONTRACTIONS:          181   (  181A   )
 NUMBER OF INNER CORE ORBITALS:     0   (    0A   )
 NUMBER OF OUTER CORE ORBITALS:     1   (    1A   )
 NUMBER OF VALENCE ORBITALS:        4   (    4A   )


 NUCLEAR REPULSION ENERGY    0.00000000

 Library entry B      S aug-cc-pVDZ-MP2F     selected for OEP group  1
 Library entry B      P aug-cc-pVDZ-MP2F     selected for OEP group  1
 Library entry B      D aug-cc-pVDZ-MP2F     selected for OEP group  1
 Library entry B      F aug-cc-pVDZ-MP2F     selected for OEP group  1
 Basis set:    OEP
 Basis size:    72
 Sphericals:   T
 EXTRA SYMMETRY OF AOS IN SYMMETRY 1:   1 1 1 1 1 1 1 1 1 1   1 2 3 4 2 3 4 2 3 4   2 3 4 2 3 4 2 3 4 2   3 4 2 3 4 2 3 4 2 3
                                        4 5 6 7 8 9 5 6 7 8   9 5 6 7 8 9 5 6 7 8   9 5 6 7 8 9 5 6 7 8   9 5 6 7 8 9 5 6 7 8
                                        9101112131415161011  12131415161011121314  15161011121314151610  11121314151610111213
                                       14151617181920212223  24251718192021222324  25171819202122232425  17181920212223242526
                                       27282930313233343536  26272829303132333435  36

 Eigenvalues of metric

         1 0.327E-05 0.195E-03 0.195E-03 0.195E-03 0.498E-03 0.517E-02 0.997E-02 0.233E-01


 Contracted 2-electron integrals neglected if value below      1.0D-12
 AO integral compression algorithm  1   Integral accuracy      1.0D-12

     125.043 MB (compressed) written to integral file ( 13.4%)


 NUMBER OF SORTED TWO-ELECTRON INTEGRALS:  135655156.     BUFFER LENGTH:  32768
 NUMBER OF SEGMENTS:   9  SEGMENT LENGTH:   15999503      RECORD LENGTH: 524288

 Memory used in sort:      16.56 MW

 SORT1 READ   116167465. AND WROTE    12062845. INTEGRALS IN     39 RECORDS. CPU TIME:     1.65 SEC, REAL TIME:     0.39 SEC
 SORT2 READ    12062845. AND WROTE   135655156. INTEGRALS IN    477 RECORDS. CPU TIME:     0.68 SEC, REAL TIME:     0.72 SEC

 FILE SIZES:   FILE 1:   156.3 MBYTE,  FILE 4:   163.6 MBYTE,   TOTAL:    319.9 MBYTE

 OPERATOR DM      FOR CENTER  0  COORDINATES:    0.000000    0.000000    0.000000


 **********************************************************************************************************************************
 DATASETS  * FILE   NREC   LENGTH (MB)   RECORD NAMES
              1      19      100.43       500      610      700      900      950      970     1000      129      960     1100   
                                          VAR    BASINP    GEOM    SYMINP    ZMAT    AOBASIS   BASIS     P2S    ABASIS      S 
                                         1400     1410     1200     1210     1080     1600     1650     1300     1700   
                                           T        V       H0       H01     AOSYM     SMH    MOLCAS    ERIS     OPER   

              2       4        1.67       700     1000      520     2200   
                                         GEOM     BASIS   MCVARS     UHF  

 PROGRAMS   *        TOTAL       INT    DF-UHF       INT
 CPU TIMES  *        26.72     22.33      2.46      1.73
 REAL TIME  *         4.41 SEC
 DISK USED  *       306.87 MB
 **********************************************************************************************************************************

 
 PROGRAM * USCEXX      (unrestricted self-consistent exact-exchange)
 
 Authors:
 A. Hesselmann, P. Bleiziffer, D. Schmidtel, J. Erhard, A. Thierbach, E. Trushin
 
 Read Orbital Records from 2200.2
 Write Orbital Records to 2201.2
 Use density fitting to evaluate the Coulomb and exchange integrals: F
 Maximum number of iterations:  30
 Minimum number of iterations:   3
 DIIS is used:
 Maximum size of DIIS matrix:  10
 Threshold for energy convergence:   1.000E-08
 Threshold for density convergence:   0.000E+00
 Thresholds for processing of OEP basis set:
 thr_symmetry:   0.000E+00
 thr_overlap_oep:     1.000E-99
 thr_fai_oep:     5.000E-03
 Threshold for eigenvalue difference in calculation of Lambda:    1.000E-06
 Threshold for eigenproblem solver of OEP equation:    1.000E-99
 Solver for eigenproblems: GTSVD
 Spin-symmetrization: T
 Constucting Hartree potential in OEP basis: T
 Fermi-Amaldi as reference potential: T
 HOMO condition: F
 The same reference potential for alpha and beta: F
 l_swap: F
 l_swap2: F
 l_frac_occ: T
 system: B                               

 Molecular orbitals read from record     2200.2  Type=UHF/ALPHA  
 Orbital energies read from record       2200.2  Type=UHF/ALPHA  
 Density matrix read from record         2200.2  Type=UHF/CHARGE  
 Molecular orbitals read from record     2200.2  Type=UHF/BETA  
 Orbital energies read from record       2200.2  Type=UHF/BETA  
 Density matrix read from record         2200.2  Type=UHF/SPIN  
 Occupation numbers read from record     2200.2  Type=UHF/UHF  
 Occupation numbers read from record     2200.2  Type=UHF/UHF  

   ITER        ENERGY            EDIFF       DDIFF       DIIS         TIME
     0      -24.5014173625                                            1.59
     1      -24.5232825998    -0.219E-01   0.707E-02      1           8.17
     2      -24.5274796142    -0.420E-02   0.420E-02      2          14.78
     3      -24.5274325381     0.471E-04   0.682E-02      3          21.40
     4      -24.5274321767     0.361E-06   0.633E-02      4          27.93
     5      -24.5274329392    -0.762E-06   0.626E-02      5          34.48
     6      -24.5274329109     0.283E-07   0.638E-02      4          41.06
     7      -24.5274329132    -0.232E-08   0.650E-02      4          47.58

 SCF converged in     7 iterations

 USCEXX orbitals written to record    2201.2
 
 !USCEXX Total energy                 -24.527432913230
  USCEXX One-electron energy          -32.388653843421
  USCEXX Two-electron energy            7.861220930191
  USCEXX Nuclear energy                 0.000000000000
  USCEXX Coulomb energy                11.622150427464
  USCEXX Exchange energy               -3.760929497273
 
 !USCEXX Dipole moment                 -0.00000000     0.00000000     0.00000000
 Dipole moment /Debye                  -0.00000000     0.00000000     0.00000000

 EXPECTATION VALUE OF S**2:             0.75000000
 
 USCEXX eigenvalues (alpha)
   1-  10  -0.68676E+01 -0.50460E+00 -0.28729E+00 -0.28729E+00 -0.28208E+00 -0.10709E+00 -0.79292E-01 -0.77964E-01 -0.77964E-01 -0.31471E-01
  11-  13  -0.30673E-01 -0.30673E-01 -0.28018E-01
 
 HOMO (alpha): -0.28729E+00
 LUMO (alpha): -0.28729E+00
 LUMO-HOMO (alpha):  0.34332E-09
 
 USCEXX eigenvalues (beta)
   1-  10  -0.68676E+01 -0.50460E+00 -0.28729E+00 -0.28729E+00 -0.28208E+00 -0.10709E+00 -0.79292E-01 -0.77964E-01 -0.77964E-01 -0.31471E-01
  11-  13  -0.30673E-01 -0.30673E-01 -0.28018E-01
 
 HOMO (beta): -0.50460E+00
 LUMO (beta): -0.28729E+00
 LUMO-HOMO (beta):  0.21731E+00
 
 USCEXX occupation numbers (alpha)
   1-  10   0.10000E+01  0.10000E+01  0.50000E+00  0.50000E+00  0.00000E+00  0.00000E+00  0.00000E+00  0.00000E+00  0.00000E+00  0.00000E+00
  11-  13   0.00000E+00  0.00000E+00  0.00000E+00
 
 
 USCEXX occupation numbers (beta)
   1-  10   0.10000E+01  0.10000E+01  0.00000E+00  0.00000E+00  0.00000E+00  0.00000E+00  0.00000E+00  0.00000E+00  0.00000E+00  0.00000E+00
  11-  13   0.00000E+00  0.00000E+00  0.00000E+00
 


 **********************************************************************************************************************************
 DATASETS  * FILE   NREC   LENGTH (MB)   RECORD NAMES
              1      19      100.43       500      610      700      900      950      970     1000      129      960     1100   
                                          VAR    BASINP    GEOM    SYMINP    ZMAT    AOBASIS   BASIS     P2S    ABASIS      S 
                                         1400     1410     1200     1210     1080     1600     1650     1300     1700   
                                           T        V       H0       H01     AOSYM     SMH    MOLCAS    ERIS     OPER   

              2       5        3.15       700     1000      520     2200     2201   
                                         GEOM     BASIS   MCVARS     UHF    USCEXX    

              4       4        7.60      2900     3000     3100     3200   

 PROGRAMS   *        TOTAL      ACFD       INT    DF-UHF       INT
 CPU TIMES  *       457.93    431.19     22.33      2.46      1.73
 REAL TIME  *        56.99 SEC
 DISK USED  *       306.87 MB
 **********************************************************************************************************************************

 ACFD/aug-cc-pWCV5Z energy=    -24.527432913230

            ACFD          DF-UHF
    -24.52743291    -24.50141621
 **********************************************************************************************************************************
 Molpro calculation terminated
