
 Working directory              : /tmp/trushin/molpro.s0Ns7HTAgr/
 Global scratch directory       : /tmp/trushin/molpro.s0Ns7HTAgr/
 Wavefunction directory         : /home/trushin/wfu/
 Main file repository           : /tmp/trushin/molpro.s0Ns7HTAgr/

 id        : chemie

 Nodes     nprocs
 tccd107      1
 GA implementation: MPI file
 GA implementation (serial work in mppx): MPI file

 Using customized tuning parameters: mindgm=1; mindgv=20; mindgc=4; mindgr=1; noblas=0; minvec=7
 default implementation of scratch files=df  


 Variables initialized (1042), CPU time= 0.01 sec
 basis={
 default,aug-cc-pwCV5Z                                                           ! orbital basis
 set,oep;default,aug-cc-pVTZ/mp2fit                                              ! OEP basis
 }
 
 symmetry,nosym                                                                  ! USCEXX does not use symmetry
 
 angstrom
 geometry={
 1
 Si 0.0 0.0 0.0
 }
 
 charge=0
 spin=2
 
 df-uhf,maxit=0
 
 acfd;uscexx,dfit=0,spin_sym=1,thr_fai_oep=5d-3,vhoep=1,fracocc=1,system='Si'
 Commands initialized (847), CPU time= 0.01 sec, 718 directives.
 Default parameters read. Elapsed time= 0.16 sec

 Checking input...
 Passed
1


                                         ***  PROGRAM SYSTEM MOLPRO  ***
                                       Copyright, TTI GmbH Stuttgart, 2015
                                    Version 2023.3 linked                         


 **********************************************************************************************************************************
 LABEL *                                                                                                                                                                 
  (16 PROC) 64 bit serial version                                                        DATE: 25-Apr-24          TIME: 15:31:47  
 **********************************************************************************************************************************

 SHA1:             da2376a17dd2bbf3f86419769cf86a3f99a84502
 **********************************************************************************************************************************

 Memory per process:      2000 MW
 Total memory per node:   2000 MW

 GA preallocation disabled
 GA check disabled

 Variable memory set to 2000.0 MW

 SETTING BASIS          =    AUG-CC-PWCV5Z
 ZSYMEL=NOSYM
 ZUNIT=ANG
 

 Geometry recognized as XYZ

 SETTING CHARGE         =      0.0000000D+00                                  
 SETTING SPIN           =         2.00000000                                  


 Recomputing integrals since basis changed


 Using spherical harmonics

 Library entry SI     S aug-cc-pwCV5Z        selected for orbital group  1
 Library entry SI     P aug-cc-pwCV5Z        selected for orbital group  1
 Library entry SI     D aug-cc-pwCV5Z        selected for orbital group  1
 Library entry SI     F aug-cc-pwCV5Z        selected for orbital group  1
 Library entry SI     G aug-cc-pwCV5Z        selected for orbital group  1
 Library entry SI     H aug-cc-pwCV5Z        selected for orbital group  1


 PROGRAM * SEWARD (Integral evaluation for generally contracted gaussian basis sets)     Author: Roland Lindh, 1990

 Geometry written to block  1 of record 700

 Orientation using atomic masses  
 Molecule type: Atom
 Rotational constants:       0.0000000      0.0000000      0.0000000 GHz  (calculated with average atomic masses)

 Point group  C1  



 ATOMIC COORDINATES

 NR  ATOM    CHARGE       X              Y              Z

   1  SI     14.00    0.000000000    0.000000000    0.000000000

 NUCLEAR CHARGE:                   14
 NUMBER OF PRIMITIVE AOS:         322
 NUMBER OF SYMMETRY AOS:          232
 NUMBER OF CONTRACTIONS:          217   (  217A   )
 NUMBER OF INNER CORE ORBITALS:     1   (    1A   )
 NUMBER OF OUTER CORE ORBITALS:     4   (    4A   )
 NUMBER OF VALENCE ORBITALS:        4   (    4A   )


 NUCLEAR REPULSION ENERGY    0.00000000

 
 Library entry SI     S aug-cc-pVTZ-MP2F     selected for OEP group  1
 Library entry SI     P aug-cc-pVTZ-MP2F     selected for OEP group  1
 Library entry SI     D aug-cc-pVTZ-MP2F     selected for OEP group  1
 Library entry SI     F aug-cc-pVTZ-MP2F     selected for OEP group  1
 Library entry SI     G aug-cc-pVTZ-MP2F     selected for OEP group  1
 Basis set:    OEP
 Basis size:   147
 Sphericals:   T

 **********************************************************************************************************************************

 EXTRA SYMMETRY OF AOS IN SYMMETRY 1:   1 1 1 1 1 1 1 1 1 1   1 1 2 3 4 2 3 4 2 3   4 2 3 4 2 3 4 2 3 4   2 3 4 2 3 4 2 3 4 2
                                        3 4 2 3 4 5 6 7 8 9   5 6 7 8 9 5 6 7 8 9   5 6 7 8 9 5 6 7 8 9   5 6 7 8 9 5 6 7 8 9
                                        5 6 7 8 9 5 6 7 8 9  10111213141516101112  13141516101112131415  16101112131415161011
                                       12131415161011121314  15161011121314151617  18192021222324251718  19202122232425171819
                                       20212223242517181920  21222324251718192021  22232425262728293031  32333435362627282930
                                       31323334353626272829  30313233343536

 Eigenvalues of metric

         1 0.378E-05 0.286E-04 0.286E-04 0.286E-04 0.521E-03 0.210E-02 0.210E-02 0.210E-02


 OPERATOR DM      FOR CENTER  0  COORDINATES:    0.000000    0.000000    0.000000


 **********************************************************************************************************************************
 DATASETS  * FILE   NREC   LENGTH (MB)   RECORD NAMES
              1      18       30.30       500      610      700      900      950      970     1000      129      960     1100   
                                          VAR    BASINP    GEOM    SYMINP    ZMAT    AOBASIS   BASIS     P2S    ABASIS      S 
                                         1400     1410     1200     1210     1080     1600     1650     1700   
                                           T        V       H0       H01     AOSYM     SMH    MOLCAS    OPER   

 PROGRAMS   *        TOTAL       INT
 CPU TIMES  *         1.94      1.80
 REAL TIME  *         0.73 SEC
 DISK USED  *        30.69 MB
 **********************************************************************************************************************************


 Program * Unrestricted Hartree-Fock

 Basis set AWCV5Z/JKFIT generated.       Number of basis functions:   230 
 Coulomb and exchange fitting
 Thresholds for fitting:       THRAO_COUL= 1.0D-15    THRAO_EXCH= 1.0D-13    THRMO= 1.0D-12    THRPROD= 1.0D-12    THRASM= 1.0D-12
                               THR2HLF=    1.0D-12

 Basis set AWCV5Z-JKFIT loaded. Number of basis functions: 230
 
 Orbital guess generated from atomic densities.
 Using density fitting in orbital guess
 

 Initial alpha occupancy:   8
 Initial beta  occupancy:   6

 Elapsed time for starting guess:      1.50 sec

 NELEC=   14   SYM=1   MS2=2   THRE=1.0D-08   THRD=3.2D-06   THRG=3.2D-06  HFMA2=F  DIIS_START=2   DIIS_MAX=10   DIIS_INCORE=F

 Initial level shifts:    0.20 (ALPHA)    0.20 (BETA)

 ITER         ETOT            DE          GRAD         DDIFF    DIIS  NEXP   TIME(IT)  TIME(TOT)  DIAG
   1   -288.84216628  -288.84216628     0.00D+00     0.00D+00     0     0       2.49      3.99    start

 Orbitals not optimized (maxit=1)

 Final alpha occupancy:   8
 Final beta  occupancy:   6
 
 !UHF STATE 1.1 Energy               -288.842166278993
  UHF One-electron energy            -399.598648521402
  UHF Two-electron energy             110.756482242408
  UHF Kinetic energy                  288.506543112573
  UHF Nuclear energy                    0.000000000000
  UHF Virial quotient                  -1.001163312148
 
 !UHF STATE 1.1 Dipole moment           0.00000000     0.00000000     0.00000000
 Dipole moment /Debye                   0.00000000     0.00000000     0.00000000

 EXPECTATION VALUE OF S**2:             2.00000000

 Orbital energies for positive spin:

           1.1          2.1          3.1          4.1          5.1          6.1          7.1          8.1          9.1         10.1
    -68.853232    -6.190490    -4.293632    -4.293632    -4.293632    -0.491686    -0.095030    -0.095030    -0.095030     0.049798

 Orbital energies for negative spin:

           1.1          2.1          3.1          4.1          5.1          6.1          7.1          8.1
    -68.853232    -6.190490    -4.293632    -4.293632    -4.293632    -0.491686    -0.095030    -0.095030


 HOMO      8.1    -0.095030 =      -2.5859eV
 LUMO      9.1    -0.095030 =      -2.5859eV
 LUMO-HOMO         0.000000 =       0.0000eV

 Orbitals saved in record  2200.2

 Occupation number threshold for pseudo-canonical orbitals: 1.9990 (occupied), 0.0010 (virtual)

 Number of pseudo-canonical occupied orbitals per symmetry:    6
 Number of active natural orbitals per symmetry:               2

 Natural orbitals saved to record    2200.2 (Orbital set 3)

 Orbital spaces for UNO-CAS (Min. occupation: 0.020  Max. occupation: 1.980):

 Closed:        6
 Active:        2


 **********************************************************************************************************************************
 DATASETS  * FILE   NREC   LENGTH (MB)   RECORD NAMES
              1      18       30.30       500      610      700      900      950      970     1000      129      960     1100   
                                          VAR    BASINP    GEOM    SYMINP    ZMAT    AOBASIS   BASIS     P2S    ABASIS      S 
                                         1400     1410     1200     1210     1080     1600     1650     1700   
                                           T        V       H0       H01     AOSYM     SMH    MOLCAS    OPER   

              2       4        2.23       700     1000      520     2200   
                                         GEOM     BASIS   MCVARS     UHF  

 PROGRAMS   *        TOTAL    DF-UHF       INT
 CPU TIMES  *         6.15      4.21      1.80
 REAL TIME  *         1.12 SEC
 DISK USED  *        36.08 MB
 **********************************************************************************************************************************


 Using spherical harmonics

 Library entry SI     S aug-cc-pwCV5Z        selected for orbital group  1
 Library entry SI     P aug-cc-pwCV5Z        selected for orbital group  1
 Library entry SI     D aug-cc-pwCV5Z        selected for orbital group  1
 Library entry SI     F aug-cc-pwCV5Z        selected for orbital group  1
 Library entry SI     G aug-cc-pwCV5Z        selected for orbital group  1
 Library entry SI     H aug-cc-pwCV5Z        selected for orbital group  1


 PROGRAM * SEWARD (Integral evaluation for generally contracted gaussian basis sets)     Author: Roland Lindh, 1990

 Geometry written to block  1 of record 700

 Orientation using atomic masses  
 Molecule type: Atom
 Rotational constants:       0.0000000      0.0000000      0.0000000 GHz  (calculated with average atomic masses)

 Point group  C1  



 ATOMIC COORDINATES

 NR  ATOM    CHARGE       X              Y              Z

   1  SI     14.00    0.000000000    0.000000000    0.000000000

 NUCLEAR CHARGE:                   14
 NUMBER OF PRIMITIVE AOS:         322
 NUMBER OF SYMMETRY AOS:          232
 NUMBER OF CONTRACTIONS:          217   (  217A   )
 NUMBER OF INNER CORE ORBITALS:     1   (    1A   )
 NUMBER OF OUTER CORE ORBITALS:     4   (    4A   )
 NUMBER OF VALENCE ORBITALS:        4   (    4A   )


 NUCLEAR REPULSION ENERGY    0.00000000

 Library entry SI     S aug-cc-pVTZ-MP2F     selected for OEP group  1
 Library entry SI     P aug-cc-pVTZ-MP2F     selected for OEP group  1
 Library entry SI     D aug-cc-pVTZ-MP2F     selected for OEP group  1
 Library entry SI     F aug-cc-pVTZ-MP2F     selected for OEP group  1
 Library entry SI     G aug-cc-pVTZ-MP2F     selected for OEP group  1
 Basis set:    OEP
 Basis size:   147
 Sphericals:   T
 EXTRA SYMMETRY OF AOS IN SYMMETRY 1:   1 1 1 1 1 1 1 1 1 1   1 1 2 3 4 2 3 4 2 3   4 2 3 4 2 3 4 2 3 4   2 3 4 2 3 4 2 3 4 2
                                        3 4 2 3 4 5 6 7 8 9   5 6 7 8 9 5 6 7 8 9   5 6 7 8 9 5 6 7 8 9   5 6 7 8 9 5 6 7 8 9
                                        5 6 7 8 9 5 6 7 8 9  10111213141516101112  13141516101112131415  16101112131415161011
                                       12131415161011121314  15161011121314151617  18192021222324251718  19202122232425171819
                                       20212223242517181920  21222324251718192021  22232425262728293031  32333435362627282930
                                       31323334353626272829  30313233343536

 Eigenvalues of metric

         1 0.378E-05 0.286E-04 0.286E-04 0.286E-04 0.521E-03 0.210E-02 0.210E-02 0.210E-02


 Contracted 2-electron integrals neglected if value below      1.0D-12
 AO integral compression algorithm  1   Integral accuracy      1.0D-12

     255.853 MB (compressed) written to integral file ( 13.3%)


 NUMBER OF SORTED TWO-ELECTRON INTEGRALS:  279744031.     BUFFER LENGTH:  32768
 NUMBER OF SEGMENTS:  18  SEGMENT LENGTH:   15999762      RECORD LENGTH: 524288

 Memory used in sort:      16.56 MW

 SORT1 READ   241177324. AND WROTE    24661415. INTEGRALS IN     83 RECORDS. CPU TIME:     1.98 SEC, REAL TIME:     0.80 SEC
 SORT2 READ    24661415. AND WROTE   279744031. INTEGRALS IN    976 RECORDS. CPU TIME:     1.05 SEC, REAL TIME:     1.14 SEC

 FILE SIZES:   FILE 1:   287.6 MBYTE,  FILE 4:   348.2 MBYTE,   TOTAL:    635.8 MBYTE

 OPERATOR DM      FOR CENTER  0  COORDINATES:    0.000000    0.000000    0.000000


 **********************************************************************************************************************************
 DATASETS  * FILE   NREC   LENGTH (MB)   RECORD NAMES
              1      19      174.81       500      610      700      900      950      970     1000      129      960     1100   
                                          VAR    BASINP    GEOM    SYMINP    ZMAT    AOBASIS   BASIS     P2S    ABASIS      S 
                                         1400     1410     1200     1210     1080     1600     1650     1300     1700   
                                           T        V       H0       H01     AOSYM     SMH    MOLCAS    ERIS     OPER   

              2       4        2.23       700     1000      520     2200   
                                         GEOM     BASIS   MCVARS     UHF  

 PROGRAMS   *        TOTAL       INT    DF-UHF       INT
 CPU TIMES  *        51.04     44.86      4.21      1.80
 REAL TIME  *         8.22 SEC
 DISK USED  *       608.69 MB
 **********************************************************************************************************************************

 
 PROGRAM * USCEXX      (unrestricted self-consistent exact-exchange)
 
 Authors:
 A. Hesselmann, P. Bleiziffer, D. Schmidtel, J. Erhard, A. Thierbach, E. Trushin
 
 Read Orbital Records from 2200.2
 Write Orbital Records to 2201.2
 Use density fitting to evaluate the Coulomb and exchange integrals: F
 Maximum number of iterations:  30
 Minimum number of iterations:   3
 DIIS is used:
 Maximum size of DIIS matrix:  10
 Threshold for energy convergence:   1.000E-08
 Threshold for density convergence:   0.000E+00
 Thresholds for processing of OEP basis set:
 thr_symmetry:   0.000E+00
 thr_overlap_oep:     1.000E-99
 thr_fai_oep:     5.000E-03
 Threshold for eigenvalue difference in calculation of Lambda:    1.000E-06
 Threshold for eigenproblem solver of OEP equation:    1.000E-99
 Solver for eigenproblems: GTSVD
 Spin-symmetrization: T
 Constucting Hartree potential in OEP basis: T
 Fermi-Amaldi as reference potential: T
 HOMO condition: F
 The same reference potential for alpha and beta: F
 l_swap: F
 l_swap2: F
 l_frac_occ: T
 system: Si                              

 Molecular orbitals read from record     2200.2  Type=UHF/ALPHA  
 Orbital energies read from record       2200.2  Type=UHF/ALPHA  
 Density matrix read from record         2200.2  Type=UHF/CHARGE  
 Molecular orbitals read from record     2200.2  Type=UHF/BETA  
 Orbital energies read from record       2200.2  Type=UHF/BETA  
 Density matrix read from record         2200.2  Type=UHF/SPIN  
 Occupation numbers read from record     2200.2  Type=UHF/UHF  
 Occupation numbers read from record     2200.2  Type=UHF/UHF  

   ITER        ENERGY            EDIFF       DDIFF       DIIS         TIME
     0     -288.8421668231                                            2.84
     1     -288.8460418515    -0.388E-02   0.468E-02      1          14.81
     2     -288.8488441187    -0.280E-02   0.402E-02      2          26.62
     3     -288.8487051749     0.139E-03   0.268E-02      3          38.55
     4     -288.8493505701    -0.645E-03   0.223E-03      4          50.40
     5     -288.8493782851    -0.277E-04   0.595E-04      5          62.37
     6     -288.8493847725    -0.649E-05   0.677E-04      6          74.24
     7     -288.8493756651     0.911E-05   0.180E-02      7          86.22
     8     -288.8493675321     0.813E-05   0.735E-03      8          98.14
     9     -288.8493509112     0.166E-04   0.889E-03      9         110.02
    10     -288.8493511698    -0.259E-06   0.194E-03      9         122.02
[mpiexec@tccd107] Sending Ctrl-C to processes as requested
[mpiexec@tccd107] Press Ctrl-C again to force abort

===================================================================================
=   BAD TERMINATION OF ONE OF YOUR APPLICATION PROCESSES
=   RANK 0 PID 22591 RUNNING AT tccd107
=   KILLED BY SIGNAL: 2 (Interrupt)
===================================================================================
