
 Working directory              : /tmp/trushin/molpro.4Mi4nPKc8w/
 Global scratch directory       : /tmp/trushin/molpro.4Mi4nPKc8w/
 Wavefunction directory         : /home/trushin/wfu/
 Main file repository           : /tmp/trushin/molpro.4Mi4nPKc8w/

 id        : chemie

 Nodes     nprocs
 trushin      1
 GA implementation: MPI file
 GA implementation (serial work in mppx): MPI file

 Using customized tuning parameters: mindgm=1; mindgv=20; mindgc=4; mindgr=1; noblas=0; minvec=7
 default implementation of scratch files=df  


 Variables initialized (1042), CPU time= 0.00 sec
 basis={
 default,aug-cc-pwCV5Z                                                           ! orbital basis
 set,oep;default,aug-cc-pVDZ/mp2fit                                              ! OEP basis
 }
 
 symmetry,nosym                                                                  ! USCEXX does not use symmetry
 
 angstrom
 geometry={
 1
 O    0.0000000    0.0000000   0.000000
 }
 
 charge=0
 spin=2
 
 df-uhf,maxit=0
 
 acfd;uscexx,dfit=0,spin_sym=1,thr_fai_oep=5d-3,vhoep=1,fracocc=1,system='O',swap2=1
 Commands initialized (847), CPU time= 0.01 sec, 718 directives.
 Default parameters read. Elapsed time= 0.05 sec

 Checking input...
 Passed
1


                                         ***  PROGRAM SYSTEM MOLPRO  ***
                                       Copyright, TTI GmbH Stuttgart, 2015
                                    Version 2023.3 linked Fri Dec  8 19:03:20 2023


 **********************************************************************************************************************************
 LABEL *                                                                                                                                                                 
  (16 PROC) 64 bit serial version                                                        DATE: 21-Apr-24          TIME: 18:43:42  
 **********************************************************************************************************************************

 SHA1:             da2376a17dd2bbf3f86419769cf86a3f99a84502
 **********************************************************************************************************************************

 Memory per process:      2000 MW
 Total memory per node:   2000 MW

 GA preallocation disabled
 GA check disabled

 Variable memory set to 2000.0 MW

 SETTING BASIS          =    AUG-CC-PWCV5Z
 ZSYMEL=NOSYM
 ZUNIT=ANG


 Geometry recognized as XYZ

 SETTING CHARGE         =      0.0000000D+00                                  
 SETTING SPIN           =         2.00000000                                  


 Recomputing integrals since basis changed


 Using spherical harmonics

 Library entry O      S aug-cc-pwCV5Z        selected for orbital group  1
 Library entry O      P aug-cc-pwCV5Z        selected for orbital group  1
 Library entry O      D aug-cc-pwCV5Z        selected for orbital group  1
 Library entry O      F aug-cc-pwCV5Z        selected for orbital group  1
 Library entry O      G aug-cc-pwCV5Z        selected for orbital group  1
 Library entry O      H aug-cc-pwCV5Z        selected for orbital group  1


 PROGRAM * SEWARD (Integral evaluation for generally contracted gaussian basis sets)     Author: Roland Lindh, 1990

 Geometry written to block  1 of record 700

 Orientation using atomic masses  
 Molecule type: Atom
 Rotational constants:       0.0000000      0.0000000      0.0000000 GHz  (calculated with average atomic masses)

 Point group  C1  



 ATOMIC COORDINATES

 NR  ATOM    CHARGE       X              Y              Z

   1  O       8.00    0.000000000    0.000000000    0.000000000

 NUCLEAR CHARGE:                    8
 NUMBER OF PRIMITIVE AOS:         268
 NUMBER OF SYMMETRY AOS:          198
 NUMBER OF CONTRACTIONS:          181   (  181A   )
 NUMBER OF INNER CORE ORBITALS:     0   (    0A   )
 NUMBER OF OUTER CORE ORBITALS:     1   (    1A   )
 NUMBER OF VALENCE ORBITALS:        4   (    4A   )


 NUCLEAR REPULSION ENERGY    0.00000000


 Library entry O      S aug-cc-pVDZ-MP2F     selected for OEP group  1
 Library entry O      P aug-cc-pVDZ-MP2F     selected for OEP group  1
 Library entry O      D aug-cc-pVDZ-MP2F     selected for OEP group  1
 Library entry O      F aug-cc-pVDZ-MP2F     selected for OEP group  1
 Basis set:    OEP
 Basis size:    72
 Sphericals:   T

 **********************************************************************************************************************************

 EXTRA SYMMETRY OF AOS IN SYMMETRY 1:   1 1 1 1 1 1 1 1 1 1   1 2 3 4 2 3 4 2 3 4   2 3 4 2 3 4 2 3 4 2   3 4 2 3 4 2 3 4 2 3
                                        4 5 6 7 8 9 5 6 7 8   9 5 6 7 8 9 5 6 7 8   9 5 6 7 8 9 5 6 7 8   9 5 6 7 8 9 5 6 7 8
                                        9101112131415161011  12131415161011121314  15161011121314151610  11121314151610111213
                                       14151617181920212223  24251718192021222324  25171819202122232425  17181920212223242526
                                       27282930313233343536  26272829303132333435  36

 Eigenvalues of metric

         1 0.550E-05 0.272E-03 0.272E-03 0.272E-03 0.390E-03 0.417E-02 0.889E-02 0.258E-01


 OPERATOR DM      FOR CENTER  0  COORDINATES:    0.000000    0.000000    0.000000


 **********************************************************************************************************************************
 DATASETS  * FILE   NREC   LENGTH (MB)   RECORD NAMES
              1      18       29.79       500      610      700      900      950      970     1000      129      960     1100   
                                          VAR    BASINP    GEOM    SYMINP    ZMAT    AOBASIS   BASIS     P2S    ABASIS      S 
                                         1400     1410     1200     1210     1080     1600     1650     1700   
                                           T        V       H0       H01     AOSYM     SMH    MOLCAS    OPER   

 PROGRAMS   *        TOTAL       INT
 CPU TIMES  *         0.31      0.22
 REAL TIME  *         1.77 SEC
 DISK USED  *        30.16 MB
 **********************************************************************************************************************************


 Program * Unrestricted Hartree-Fock

 Basis set AWCV5Z/JKFIT generated.       Number of basis functions:   195 
 Coulomb and exchange fitting
 Thresholds for fitting:       THRAO_COUL= 1.0D-15    THRAO_EXCH= 1.0D-13    THRMO= 1.0D-12    THRPROD= 1.0D-12    THRASM= 1.0D-12
                               THR2HLF=    1.0D-12

 Basis set AWCV5Z-JKFIT loaded. Number of basis functions: 195

 Orbital guess generated from atomic densities.
 Using density fitting in orbital guess


 Initial alpha occupancy:   5
 Initial beta  occupancy:   3

 Elapsed time for starting guess:      0.12 sec

 NELEC=    8   SYM=1   MS2=2   THRE=1.0D-08   THRD=3.2D-06   THRG=3.2D-06  HFMA2=F  DIIS_START=2   DIIS_MAX=10   DIIS_INCORE=F

 Initial level shifts:    0.20 (ALPHA)    0.20 (BETA)

 ITER         ETOT            DE          GRAD         DDIFF    DIIS  NEXP   TIME(IT)  TIME(TOT)  DIAG
   1    -74.78870481   -74.78870481     0.00D+00     0.00D+00     0     0       0.22      0.34    start

 Orbitals not optimized (maxit=1)

 Final alpha occupancy:   5
 Final beta  occupancy:   3

 !UHF STATE 1.1 Energy                -74.788704808183
  UHF One-electron energy            -102.376391944142
  UHF Two-electron energy              27.587687135959
  UHF Kinetic energy                   73.855924676792
  UHF Nuclear energy                    0.000000000000
  UHF Virial quotient                  -1.012629726531

 !UHF STATE 1.1 Dipole moment          -0.00000000    -0.00000000    -0.00000000
 Dipole moment /Debye                  -0.00000000    -0.00000000    -0.00000000

 EXPECTATION VALUE OF S**2:             2.00000000

 Orbital energies for positive spin:

           1.1          2.1          3.1          4.1          5.1          6.1          7.1
    -20.671922    -1.184571    -0.389807    -0.389807    -0.389807     0.108968     0.108968

 Orbital energies for negative spin:

           1.1          2.1          3.1          4.1          5.1
    -20.671922    -1.184571    -0.389807    -0.389807    -0.389807


 HOMO     -3.1    -0.389807 =     -10.6072eV
 LUMO     -4.1    -0.389807 =     -10.6072eV
 LUMO-HOMO         0.000000 =       0.0000eV

 Orbitals saved in record  2200.2

 Occupation number threshold for pseudo-canonical orbitals: 1.9990 (occupied), 0.0010 (virtual)

 Number of pseudo-canonical occupied orbitals per symmetry:    3
 Number of active natural orbitals per symmetry:               2

 Natural orbitals saved to record    2200.2 (Orbital set 3)

 Orbital spaces for UNO-CAS (Min. occupation: 0.020  Max. occupation: 1.980):

 Closed:        3
 Active:        2


 **********************************************************************************************************************************
 DATASETS  * FILE   NREC   LENGTH (MB)   RECORD NAMES
              1      18       29.79       500      610      700      900      950      970     1000      129      960     1100   
                                          VAR    BASINP    GEOM    SYMINP    ZMAT    AOBASIS   BASIS     P2S    ABASIS      S 
                                         1400     1410     1200     1210     1080     1600     1650     1700   
                                           T        V       H0       H01     AOSYM     SMH    MOLCAS    OPER   

              2       4        1.67       700     1000      520     2200   
                                         GEOM     BASIS   MCVARS     UHF  

 PROGRAMS   *        TOTAL    DF-UHF       INT
 CPU TIMES  *         0.78      0.47      0.22
 REAL TIME  *         2.06 SEC
 DISK USED  *        32.37 MB
 **********************************************************************************************************************************


 Using spherical harmonics

 Library entry O      S aug-cc-pwCV5Z        selected for orbital group  1
 Library entry O      P aug-cc-pwCV5Z        selected for orbital group  1
 Library entry O      D aug-cc-pwCV5Z        selected for orbital group  1
 Library entry O      F aug-cc-pwCV5Z        selected for orbital group  1
 Library entry O      G aug-cc-pwCV5Z        selected for orbital group  1
 Library entry O      H aug-cc-pwCV5Z        selected for orbital group  1


 PROGRAM * SEWARD (Integral evaluation for generally contracted gaussian basis sets)     Author: Roland Lindh, 1990

 Geometry written to block  1 of record 700

 Orientation using atomic masses  
 Molecule type: Atom
 Rotational constants:       0.0000000      0.0000000      0.0000000 GHz  (calculated with average atomic masses)

 Point group  C1  



 ATOMIC COORDINATES

 NR  ATOM    CHARGE       X              Y              Z

   1  O       8.00    0.000000000    0.000000000    0.000000000

 NUCLEAR CHARGE:                    8
 NUMBER OF PRIMITIVE AOS:         268
 NUMBER OF SYMMETRY AOS:          198
 NUMBER OF CONTRACTIONS:          181   (  181A   )
 NUMBER OF INNER CORE ORBITALS:     0   (    0A   )
 NUMBER OF OUTER CORE ORBITALS:     1   (    1A   )
 NUMBER OF VALENCE ORBITALS:        4   (    4A   )


 NUCLEAR REPULSION ENERGY    0.00000000

 Library entry O      S aug-cc-pVDZ-MP2F     selected for OEP group  1
 Library entry O      P aug-cc-pVDZ-MP2F     selected for OEP group  1
 Library entry O      D aug-cc-pVDZ-MP2F     selected for OEP group  1
 Library entry O      F aug-cc-pVDZ-MP2F     selected for OEP group  1
 Basis set:    OEP
 Basis size:    72
 Sphericals:   T
 EXTRA SYMMETRY OF AOS IN SYMMETRY 1:   1 1 1 1 1 1 1 1 1 1   1 2 3 4 2 3 4 2 3 4   2 3 4 2 3 4 2 3 4 2   3 4 2 3 4 2 3 4 2 3
                                        4 5 6 7 8 9 5 6 7 8   9 5 6 7 8 9 5 6 7 8   9 5 6 7 8 9 5 6 7 8   9 5 6 7 8 9 5 6 7 8
                                        9101112131415161011  12131415161011121314  15161011121314151610  11121314151610111213
                                       14151617181920212223  24251718192021222324  25171819202122232425  17181920212223242526
                                       27282930313233343536  26272829303132333435  36

 Eigenvalues of metric

         1 0.550E-05 0.272E-03 0.272E-03 0.272E-03 0.390E-03 0.417E-02 0.889E-02 0.258E-01


 Contracted 2-electron integrals neglected if value below      1.0D-12
 AO integral compression algorithm  1   Integral accuracy      1.0D-12

     130.286 MB (compressed) written to integral file ( 14.0%)


 NUMBER OF SORTED TWO-ELECTRON INTEGRALS:  135655156.     BUFFER LENGTH:  32768
 NUMBER OF SEGMENTS:   9  SEGMENT LENGTH:   15999503      RECORD LENGTH: 524288

 Memory used in sort:      16.56 MW

 SORT1 READ   116167465. AND WROTE    12078421. INTEGRALS IN     39 RECORDS. CPU TIME:     0.26 SEC, REAL TIME:     0.44 SEC
 SORT2 READ    12078421. AND WROTE   135655156. INTEGRALS IN    497 RECORDS. CPU TIME:     0.67 SEC, REAL TIME:     0.80 SEC

 FILE SIZES:   FILE 1:   161.5 MBYTE,  FILE 4:   163.6 MBYTE,   TOTAL:    325.2 MBYTE

 OPERATOR DM      FOR CENTER  0  COORDINATES:    0.000000    0.000000    0.000000


 **********************************************************************************************************************************
 DATASETS  * FILE   NREC   LENGTH (MB)   RECORD NAMES
              1      19      103.39       500      610      700      900      950      970     1000      129      960     1100   
                                          VAR    BASINP    GEOM    SYMINP    ZMAT    AOBASIS   BASIS     P2S    ABASIS      S 
                                         1400     1410     1200     1210     1080     1600     1650     1300     1700   
                                           T        V       H0       H01     AOSYM     SMH    MOLCAS    ERIS     OPER   

              2       4        1.67       700     1000      520     2200   
                                         GEOM     BASIS   MCVARS     UHF  

 PROGRAMS   *        TOTAL       INT    DF-UHF       INT
 CPU TIMES  *         5.50      4.71      0.47      0.22
 REAL TIME  *         7.35 SEC
 DISK USED  *       311.87 MB
 **********************************************************************************************************************************


 PROGRAM * USCEXX      (unrestricted self-consistent exact-exchange)

 Authors:
 A. Hesselmann, P. Bleiziffer, D. Schmidtel, J. Erhard, A. Thierbach, E. Trushin

 Read Orbital Records from 2200.2
 Write Orbital Records to 2201.2
 Use density fitting to evaluate the Coulomb and exchange integrals: F
 Maximum number of iterations:  30
 Minimum number of iterations:   3
 DIIS is used:
 Maximum size of DIIS matrix:  10
 Threshold for energy convergence:   1.000E-08
 Threshold for density convergence:   0.000E+00
 Thresholds for processing of OEP basis set:
 thr_symmetry:   0.000E+00
 thr_overlap_oep:     1.000E-99
 thr_fai_oep:     5.000E-03
 Threshold for eigenvalue difference in calculation of Lambda:    1.000E-06
 Threshold for eigenproblem solver of OEP equation:    1.000E-99
 Solver for eigenproblems: GTSVD
 Spin-symmetrization: T
 Constucting Hartree potential in OEP basis: T
 Fermi-Amaldi as reference potential: T
 HOMO condition: F
 The same reference potential for alpha and beta: F
 l_swap: F
 l_swap2: T
 l_frac_occ: T
 system: O                               

 Molecular orbitals read from record     2200.2  Type=UHF/ALPHA  
 Orbital energies read from record       2200.2  Type=UHF/ALPHA  
 Density matrix read from record         2200.2  Type=UHF/CHARGE  
 Molecular orbitals read from record     2200.2  Type=UHF/BETA  
 Orbital energies read from record       2200.2  Type=UHF/BETA  
 Density matrix read from record         2200.2  Type=UHF/SPIN  
 Occupation numbers read from record     2200.2  Type=UHF/UHF  
 Occupation numbers read from record     2200.2  Type=UHF/UHF  

   ITER        ENERGY            EDIFF       DDIFF       DIIS         TIME
     0      -74.7887056141                                            2.41
     0      -74.7887056141                                            4.82
     1      -74.7876797839     0.103E-02   0.684E-02      1          18.20
     1      -74.7908069361    -0.210E-02   0.684E-02      1          20.60
     2      -74.8057521091    -0.149E-01   0.277E-02      2          34.00
     2      -74.8071874234    -0.164E-01   0.277E-02      2          36.48
     3      -74.8058987873     0.129E-02   0.744E-03      3          49.94
     3      -74.8077709081    -0.583E-03   0.744E-03      3          52.36
     4      -74.8058544554     0.192E-02   0.269E-04      4          66.09
     4      -74.8077613547     0.955E-05   0.269E-04      4          68.51
     5      -74.8058565514     0.190E-02   0.174E-05      5          82.08
     5      -74.8077620891    -0.734E-06   0.174E-05      5          84.57
     6      -74.8058562474     0.191E-02   0.163E-06      3          98.31
     6      -74.8077620182     0.709E-07   0.163E-06      3         100.79
     7      -74.8058562479     0.191E-02   0.107E-08      3         114.28
     7      -74.8077620186    -0.418E-09   0.107E-08      3         116.71

 SCF converged in     7 iterations

 USCEXX orbitals written to record    2201.2
 
 !USCEXX Total energy                 -74.807762018613
  USCEXX One-electron energy         -103.293010788870
  USCEXX Two-electron energy           28.485248770257
  USCEXX Nuclear energy                 0.000000000000
  USCEXX Coulomb energy                36.688408688956
  USCEXX Exchange energy               -8.203159918699
 
 !USCEXX Dipole moment                 -0.00000000     0.00000000     0.00000000
 Dipole moment /Debye                  -0.00000000     0.00000000     0.00000000

 EXPECTATION VALUE OF S**2:             2.00000000

 USCEXX eigenvalues (alpha)
   1-  10  -0.19171E+02 -0.11506E+01 -0.59615E+00 -0.58331E+00 -0.58331E+00 -0.12676E+00 -0.85395E-01 -0.83566E-01 -0.83566E-01  0.12513E+00
  11-  15   0.12513E+00  0.12595E+00  0.12595E+00  0.12618E+00  0.19368E+00

 HOMO (alpha): -0.58331E+00
 LUMO (alpha): -0.12676E+00
 LUMO-HOMO (alpha):  0.45655E+00

 USCEXX eigenvalues (beta)
   1-  10  -0.19171E+02 -0.11506E+01 -0.59615E+00 -0.58331E+00 -0.58331E+00 -0.12676E+00 -0.85395E-01 -0.83566E-01 -0.83566E-01  0.12513E+00
  11-  15   0.12513E+00  0.12595E+00  0.12595E+00  0.12618E+00  0.19368E+00

 HOMO (beta): -0.59615E+00
 LUMO (beta): -0.58331E+00
 LUMO-HOMO (beta):  0.12831E-01

 USCEXX occupation numbers (alpha)
   1-  10   0.10000E+01  0.10000E+01  0.10000E+01  0.10000E+01  0.10000E+01  0.00000E+00  0.00000E+00  0.00000E+00  0.00000E+00  0.00000E+00
  11-  15   0.00000E+00  0.00000E+00  0.00000E+00  0.00000E+00  0.00000E+00


 USCEXX occupation numbers (beta)
   1-  10   0.10000E+01  0.10000E+01  0.00000E+00  0.50000E+00  0.50000E+00  0.00000E+00  0.00000E+00  0.00000E+00  0.00000E+00  0.00000E+00
  11-  15   0.00000E+00  0.00000E+00  0.00000E+00  0.00000E+00  0.00000E+00

 
 !USCEXX Total energy                 -74.807762018613
  USCEXX One-electron energy         -103.293010788870
  USCEXX Two-electron energy           28.485248770257
  USCEXX Nuclear energy                 0.000000000000
  USCEXX Coulomb energy                36.688408688956
  USCEXX Exchange energy               -8.203159918699


 **********************************************************************************************************************************
 DATASETS  * FILE   NREC   LENGTH (MB)   RECORD NAMES
              1      19      103.39       500      610      700      900      950      970     1000      129      960     1100   
                                          VAR    BASINP    GEOM    SYMINP    ZMAT    AOBASIS   BASIS     P2S    ABASIS      S 
                                         1400     1410     1200     1210     1080     1600     1650     1300     1700   
                                           T        V       H0       H01     AOSYM     SMH    MOLCAS    ERIS     OPER   

              2       5        3.15       700     1000      520     2200     2201   
                                         GEOM     BASIS   MCVARS     UHF    USCEXX    

              4       4        7.60      2900     3000     3100     3200   

 PROGRAMS   *        TOTAL      ACFD       INT    DF-UHF       INT
 CPU TIMES  *       138.15    132.65      4.71      0.47      0.22
 REAL TIME  *       137.57 SEC
 DISK USED  *       311.87 MB
 **********************************************************************************************************************************

 ACFD/aug-cc-pWCV5Z energy=    -74.807762018613

            ACFD          DF-UHF
    -74.80776202    -74.78870481
 **********************************************************************************************************************************
 Molpro calculation terminated
