
 Working directory              : /tmp/trushin/molpro.XNnm2YUe46/
 Global scratch directory       : /tmp/trushin/molpro.XNnm2YUe46/
 Wavefunction directory         : /home/trushin/wfu/
 Main file repository           : /tmp/trushin/molpro.XNnm2YUe46/

 id        : chemie

 Nodes     nprocs
 trushin      1
 GA implementation: MPI file
 GA implementation (serial work in mppx): MPI file

 Using customized tuning parameters: mindgm=1; mindgv=20; mindgc=4; mindgr=1; noblas=0; minvec=7
 default implementation of scratch files=df  


 Variables initialized (1042), CPU time= 0.01 sec
 basis={
 default,aug-cc-pwCV5Z                                                           ! orbital basis
 set,oep;default,aug-cc-pVDZ/mp2fit                                              ! OEP basis
 }
 
 symmetry,nosym                                                                  ! USCEXX does not use symmetry
 
 angstrom
 geometry={
 1
 F    0.0000000    0.0000000   0.000000
 }
 
 charge=0
 spin=1
 
 df-uhf,maxit=0
 
 acfd;uscexx,dfit=0,spin_sym=1,thr_fai_oep=5d-3,vhoep=1,fracocc=1,system='F',swap2=1
 Commands initialized (847), CPU time= 0.00 sec, 718 directives.
 Default parameters read. Elapsed time= 0.06 sec

 Checking input...
 Passed
1


                                         ***  PROGRAM SYSTEM MOLPRO  ***
                                       Copyright, TTI GmbH Stuttgart, 2015
                                    Version 2023.3 linked Fri Dec  8 19:03:20 2023


 **********************************************************************************************************************************
 LABEL *                                                                                                                                                                 
  (16 PROC) 64 bit serial version                                                        DATE: 21-Apr-24          TIME: 18:46:38  
 **********************************************************************************************************************************

 SHA1:             da2376a17dd2bbf3f86419769cf86a3f99a84502
 **********************************************************************************************************************************

 Memory per process:      2000 MW
 Total memory per node:   2000 MW

 GA preallocation disabled
 GA check disabled

 Variable memory set to 2000.0 MW

 SETTING BASIS          =    AUG-CC-PWCV5Z
 ZSYMEL=NOSYM
 ZUNIT=ANG


 Geometry recognized as XYZ

 SETTING CHARGE         =      0.0000000D+00                                  
 SETTING SPIN           =         1.00000000                                  


 Recomputing integrals since basis changed


 Using spherical harmonics

 Library entry F      S aug-cc-pwCV5Z        selected for orbital group  1
 Library entry F      P aug-cc-pwCV5Z        selected for orbital group  1
 Library entry F      D aug-cc-pwCV5Z        selected for orbital group  1
 Library entry F      F aug-cc-pwCV5Z        selected for orbital group  1
 Library entry F      G aug-cc-pwCV5Z        selected for orbital group  1
 Library entry F      H aug-cc-pwCV5Z        selected for orbital group  1


 PROGRAM * SEWARD (Integral evaluation for generally contracted gaussian basis sets)     Author: Roland Lindh, 1990

 Geometry written to block  1 of record 700

 Orientation using atomic masses  
 Molecule type: Atom
 Rotational constants:       0.0000000      0.0000000      0.0000000 GHz  (calculated with average atomic masses)

 Point group  C1  



 ATOMIC COORDINATES

 NR  ATOM    CHARGE       X              Y              Z

   1  F       9.00    0.000000000    0.000000000    0.000000000

 NUCLEAR CHARGE:                    9
 NUMBER OF PRIMITIVE AOS:         268
 NUMBER OF SYMMETRY AOS:          198
 NUMBER OF CONTRACTIONS:          181   (  181A   )
 NUMBER OF INNER CORE ORBITALS:     0   (    0A   )
 NUMBER OF OUTER CORE ORBITALS:     1   (    1A   )
 NUMBER OF VALENCE ORBITALS:        4   (    4A   )


 NUCLEAR REPULSION ENERGY    0.00000000


 Library entry F      S aug-cc-pVDZ-MP2F     selected for OEP group  1
 Library entry F      P aug-cc-pVDZ-MP2F     selected for OEP group  1
 Library entry F      D aug-cc-pVDZ-MP2F     selected for OEP group  1
 Library entry F      F aug-cc-pVDZ-MP2F     selected for OEP group  1
 Basis set:    OEP
 Basis size:    72
 Sphericals:   T

 **********************************************************************************************************************************

 EXTRA SYMMETRY OF AOS IN SYMMETRY 1:   1 1 1 1 1 1 1 1 1 1   1 2 3 4 2 3 4 2 3 4   2 3 4 2 3 4 2 3 4 2   3 4 2 3 4 2 3 4 2 3
                                        4 5 6 7 8 9 5 6 7 8   9 5 6 7 8 9 5 6 7 8   9 5 6 7 8 9 5 6 7 8   9 5 6 7 8 9 5 6 7 8
                                        9101112131415161011  12131415161011121314  15161011121314151610  11121314151610111213
                                       14151617181920212223  24251718192021222324  25171819202122232425  17181920212223242526
                                       27282930313233343536  26272829303132333435  36

 Eigenvalues of metric

         1 0.554E-05 0.317E-03 0.317E-03 0.317E-03 0.388E-03 0.391E-02 0.886E-02 0.260E-01


 OPERATOR DM      FOR CENTER  0  COORDINATES:    0.000000    0.000000    0.000000


 **********************************************************************************************************************************
 DATASETS  * FILE   NREC   LENGTH (MB)   RECORD NAMES
              1      18       29.79       500      610      700      900      950      970     1000      129      960     1100   
                                          VAR    BASINP    GEOM    SYMINP    ZMAT    AOBASIS   BASIS     P2S    ABASIS      S 
                                         1400     1410     1200     1210     1080     1600     1650     1700   
                                           T        V       H0       H01     AOSYM     SMH    MOLCAS    OPER   

 PROGRAMS   *        TOTAL       INT
 CPU TIMES  *         0.28      0.20
 REAL TIME  *         1.77 SEC
 DISK USED  *        30.16 MB
 **********************************************************************************************************************************


 Program * Unrestricted Hartree-Fock

 Basis set AWCV5Z/JKFIT generated.       Number of basis functions:   195 
 Coulomb and exchange fitting
 Thresholds for fitting:       THRAO_COUL= 1.0D-15    THRAO_EXCH= 1.0D-13    THRMO= 1.0D-12    THRPROD= 1.0D-12    THRASM= 1.0D-12
                               THR2HLF=    1.0D-12

 Basis set AWCV5Z-JKFIT loaded. Number of basis functions: 195

 Orbital guess generated from atomic densities.
 Using density fitting in orbital guess


 Initial alpha occupancy:   5
 Initial beta  occupancy:   4

 Elapsed time for starting guess:      0.12 sec

 NELEC=    9   SYM=1   MS2=1   THRE=1.0D-08   THRD=3.2D-06   THRG=3.2D-06  HFMA2=F  DIIS_START=2   DIIS_MAX=10   DIIS_INCORE=F

 Initial level shifts:    0.20 (ALPHA)    0.20 (BETA)

 ITER         ETOT            DE          GRAD         DDIFF    DIIS  NEXP   TIME(IT)  TIME(TOT)  DIAG
   1    -99.40401266   -99.40401266     0.00D+00     0.00D+00     0     0       0.22      0.34    start

 Orbitals not optimized (maxit=1)

 Final alpha occupancy:   5
 Final beta  occupancy:   4

 !UHF STATE 1.1 Energy                -99.404012659750
  UHF One-electron energy            -138.729836859019
  UHF Two-electron energy              39.325824199269
  UHF Kinetic energy                   98.800475121353
  UHF Nuclear energy                    0.000000000000
  UHF Virial quotient                  -1.006108650162

 !UHF STATE 1.1 Dipole moment           0.00000000    -0.00000000     0.00000000
 Dipole moment /Debye                   0.00000000    -0.00000000     0.00000000

 EXPECTATION VALUE OF S**2:             0.75000000

 Orbital energies for positive spin:

           1.1          2.1          3.1          4.1          5.1          6.1          7.1
    -26.384724    -1.537890    -0.601692    -0.601692    -0.601692     0.131734     0.131734

 Orbital energies for negative spin:

           1.1          2.1          3.1          4.1          5.1          6.1
    -26.384724    -1.537890    -0.601692    -0.601692    -0.601692     0.131734


 HOMO     -4.1    -0.601692 =     -16.3729eV
 LUMO     -5.1    -0.601692 =     -16.3729eV
 LUMO-HOMO         0.000000 =       0.0000eV

 Orbitals saved in record  2200.2

 Occupation number threshold for pseudo-canonical orbitals: 1.9990 (occupied), 0.0010 (virtual)

 Number of pseudo-canonical occupied orbitals per symmetry:    4
 Number of active natural orbitals per symmetry:               1

 Natural orbitals saved to record    2200.2 (Orbital set 3)

 Orbital spaces for UNO-CAS (Min. occupation: 0.020  Max. occupation: 1.980):

 Closed:        4
 Active:        1


 **********************************************************************************************************************************
 DATASETS  * FILE   NREC   LENGTH (MB)   RECORD NAMES
              1      18       29.79       500      610      700      900      950      970     1000      129      960     1100   
                                          VAR    BASINP    GEOM    SYMINP    ZMAT    AOBASIS   BASIS     P2S    ABASIS      S 
                                         1400     1410     1200     1210     1080     1600     1650     1700   
                                           T        V       H0       H01     AOSYM     SMH    MOLCAS    OPER   

              2       4        1.67       700     1000      520     2200   
                                         GEOM     BASIS   MCVARS     UHF  

 PROGRAMS   *        TOTAL    DF-UHF       INT
 CPU TIMES  *         0.76      0.48      0.20
 REAL TIME  *         2.07 SEC
 DISK USED  *        32.64 MB
 **********************************************************************************************************************************


 Using spherical harmonics

 Library entry F      S aug-cc-pwCV5Z        selected for orbital group  1
 Library entry F      P aug-cc-pwCV5Z        selected for orbital group  1
 Library entry F      D aug-cc-pwCV5Z        selected for orbital group  1
 Library entry F      F aug-cc-pwCV5Z        selected for orbital group  1
 Library entry F      G aug-cc-pwCV5Z        selected for orbital group  1
 Library entry F      H aug-cc-pwCV5Z        selected for orbital group  1


 PROGRAM * SEWARD (Integral evaluation for generally contracted gaussian basis sets)     Author: Roland Lindh, 1990

 Geometry written to block  1 of record 700

 Orientation using atomic masses  
 Molecule type: Atom
 Rotational constants:       0.0000000      0.0000000      0.0000000 GHz  (calculated with average atomic masses)

 Point group  C1  



 ATOMIC COORDINATES

 NR  ATOM    CHARGE       X              Y              Z

   1  F       9.00    0.000000000    0.000000000    0.000000000

 NUCLEAR CHARGE:                    9
 NUMBER OF PRIMITIVE AOS:         268
 NUMBER OF SYMMETRY AOS:          198
 NUMBER OF CONTRACTIONS:          181   (  181A   )
 NUMBER OF INNER CORE ORBITALS:     0   (    0A   )
 NUMBER OF OUTER CORE ORBITALS:     1   (    1A   )
 NUMBER OF VALENCE ORBITALS:        4   (    4A   )


 NUCLEAR REPULSION ENERGY    0.00000000

 Library entry F      S aug-cc-pVDZ-MP2F     selected for OEP group  1
 Library entry F      P aug-cc-pVDZ-MP2F     selected for OEP group  1
 Library entry F      D aug-cc-pVDZ-MP2F     selected for OEP group  1
 Library entry F      F aug-cc-pVDZ-MP2F     selected for OEP group  1
 Basis set:    OEP
 Basis size:    72
 Sphericals:   T
 EXTRA SYMMETRY OF AOS IN SYMMETRY 1:   1 1 1 1 1 1 1 1 1 1   1 2 3 4 2 3 4 2 3 4   2 3 4 2 3 4 2 3 4 2   3 4 2 3 4 2 3 4 2 3
                                        4 5 6 7 8 9 5 6 7 8   9 5 6 7 8 9 5 6 7 8   9 5 6 7 8 9 5 6 7 8   9 5 6 7 8 9 5 6 7 8
                                        9101112131415161011  12131415161011121314  15161011121314151610  11121314151610111213
                                       14151617181920212223  24251718192021222324  25171819202122232425  17181920212223242526
                                       27282930313233343536  26272829303132333435  36

 Eigenvalues of metric

         1 0.554E-05 0.317E-03 0.317E-03 0.317E-03 0.388E-03 0.391E-02 0.886E-02 0.260E-01


 Contracted 2-electron integrals neglected if value below      1.0D-12
 AO integral compression algorithm  1   Integral accuracy      1.0D-12

     131.858 MB (compressed) written to integral file ( 14.2%)


 NUMBER OF SORTED TWO-ELECTRON INTEGRALS:  135655156.     BUFFER LENGTH:  32768
 NUMBER OF SEGMENTS:   9  SEGMENT LENGTH:   15999503      RECORD LENGTH: 524288

 Memory used in sort:      16.56 MW

 SORT1 READ   116167465. AND WROTE    12082139. INTEGRALS IN     39 RECORDS. CPU TIME:     0.27 SEC, REAL TIME:     0.45 SEC
 SORT2 READ    12082139. AND WROTE   135655156. INTEGRALS IN    503 RECORDS. CPU TIME:     0.66 SEC, REAL TIME:     0.80 SEC

 FILE SIZES:   FILE 1:   163.1 MBYTE,  FILE 4:   163.6 MBYTE,   TOTAL:    326.7 MBYTE

 OPERATOR DM      FOR CENTER  0  COORDINATES:    0.000000    0.000000    0.000000


 **********************************************************************************************************************************
 DATASETS  * FILE   NREC   LENGTH (MB)   RECORD NAMES
              1      19      104.20       500      610      700      900      950      970     1000      129      960     1100   
                                          VAR    BASINP    GEOM    SYMINP    ZMAT    AOBASIS   BASIS     P2S    ABASIS      S 
                                         1400     1410     1200     1210     1080     1600     1650     1300     1700   
                                           T        V       H0       H01     AOSYM     SMH    MOLCAS    ERIS     OPER   

              2       4        1.67       700     1000      520     2200   
                                         GEOM     BASIS   MCVARS     UHF  

 PROGRAMS   *        TOTAL       INT    DF-UHF       INT
 CPU TIMES  *         5.38      4.62      0.48      0.20
 REAL TIME  *         7.29 SEC
 DISK USED  *       313.37 MB
 **********************************************************************************************************************************


 PROGRAM * USCEXX      (unrestricted self-consistent exact-exchange)

 Authors:
 A. Hesselmann, P. Bleiziffer, D. Schmidtel, J. Erhard, A. Thierbach, E. Trushin

 Read Orbital Records from 2200.2
 Write Orbital Records to 2201.2
 Use density fitting to evaluate the Coulomb and exchange integrals: F
 Maximum number of iterations:  30
 Minimum number of iterations:   3
 DIIS is used:
 Maximum size of DIIS matrix:  10
 Threshold for energy convergence:   1.000E-08
 Threshold for density convergence:   0.000E+00
 Thresholds for processing of OEP basis set:
 thr_symmetry:   0.000E+00
 thr_overlap_oep:     1.000E-99
 thr_fai_oep:     5.000E-03
 Threshold for eigenvalue difference in calculation of Lambda:    1.000E-06
 Threshold for eigenproblem solver of OEP equation:    1.000E-99
 Solver for eigenproblems: GTSVD
 Spin-symmetrization: T
 Constucting Hartree potential in OEP basis: T
 Fermi-Amaldi as reference potential: T
 HOMO condition: F
 The same reference potential for alpha and beta: F
 l_swap: F
 l_swap2: T
 l_frac_occ: T
 system: F                               

 Molecular orbitals read from record     2200.2  Type=UHF/ALPHA  
 Orbital energies read from record       2200.2  Type=UHF/ALPHA  
 Density matrix read from record         2200.2  Type=UHF/CHARGE  
 Molecular orbitals read from record     2200.2  Type=UHF/BETA  
 Orbital energies read from record       2200.2  Type=UHF/BETA  
 Density matrix read from record         2200.2  Type=UHF/SPIN  
 Occupation numbers read from record     2200.2  Type=UHF/UHF  
 Occupation numbers read from record     2200.2  Type=UHF/UHF  

   ITER        ENERGY            EDIFF       DDIFF       DIIS         TIME
     0      -99.4040148184                                            2.41
     0      -99.4040148184                                            4.81
     1      -99.3987708428     0.524E-02   0.599E-02      1          18.18
     1      -99.4010038450     0.301E-02   0.599E-02      1          20.58
     2      -99.4050024575    -0.400E-02   0.220E-02      2          34.25
     2      -99.4057822637    -0.478E-02   0.220E-02      2          36.74
     3      -99.4061963558    -0.414E-03   0.776E-03      3          50.41
     3      -99.4076160280    -0.183E-02   0.776E-03      3          52.85
     4      -99.4061977588     0.142E-02   0.645E-04      4          66.51
     4      -99.4076143968     0.163E-05   0.645E-04      4          69.02
     5      -99.4062007958     0.141E-02   0.165E-03      5          82.47
     5      -99.4076018295     0.126E-04   0.165E-03      5          84.89
     6      -99.4062043026     0.140E-02   0.147E-04      5          98.39
     6      -99.4076007325     0.110E-05   0.147E-04      5         100.79
     7      -99.4062042410     0.140E-02   0.605E-06      4         114.40
     7      -99.4076005400     0.193E-06   0.605E-06      4         116.85
     8      -99.4062042552     0.140E-02   0.158E-07      4         130.23
     8      -99.4076005422    -0.220E-08   0.158E-07      4         132.66

 SCF converged in     8 iterations

 USCEXX orbitals written to record    2201.2
 
 !USCEXX Total energy                 -99.407600542170
  USCEXX One-electron energy         -139.289061593306
  USCEXX Two-electron energy           39.881461051136
  USCEXX Nuclear energy                 0.000000000000
  USCEXX Coulomb energy                49.916926111076
  USCEXX Exchange energy              -10.035465059939
 
 !USCEXX Dipole moment                  0.00000000     0.00000000    -0.00000000
 Dipole moment /Debye                   0.00000000     0.00000000    -0.00000000

 EXPECTATION VALUE OF S**2:             0.75000000

 USCEXX eigenvalues (alpha)
   1-  10  -0.24627E+02 -0.13876E+01 -0.68570E+00 -0.68570E+00 -0.66971E+00 -0.12447E+00 -0.80168E-01 -0.80168E-01 -0.78655E-01  0.21430E+00
  11-  15   0.21450E+00  0.21450E+00  0.21506E+00  0.21506E+00  0.26845E+00

 HOMO (alpha): -0.66971E+00
 LUMO (alpha): -0.12447E+00
 LUMO-HOMO (alpha):  0.54523E+00

 USCEXX eigenvalues (beta)
   1-  10  -0.24627E+02 -0.13876E+01 -0.68570E+00 -0.68570E+00 -0.66971E+00 -0.12447E+00 -0.80168E-01 -0.80168E-01 -0.78655E-01  0.21430E+00
  11-  15   0.21450E+00  0.21450E+00  0.21506E+00  0.21506E+00  0.26845E+00

 HOMO (beta): -0.68570E+00
 LUMO (beta): -0.66971E+00
 LUMO-HOMO (beta):  0.15991E-01

 USCEXX occupation numbers (alpha)
   1-  10   0.10000E+01  0.10000E+01  0.10000E+01  0.10000E+01  0.10000E+01  0.00000E+00  0.00000E+00  0.00000E+00  0.00000E+00  0.00000E+00
  11-  15   0.00000E+00  0.00000E+00  0.00000E+00  0.00000E+00  0.00000E+00


 USCEXX occupation numbers (beta)
   1-  10   0.10000E+01  0.10000E+01  0.50000E+00  0.50000E+00  0.10000E+01  0.00000E+00  0.00000E+00  0.00000E+00  0.00000E+00  0.00000E+00
  11-  15   0.00000E+00  0.00000E+00  0.00000E+00  0.00000E+00  0.00000E+00

 
 !USCEXX Total energy                 -99.407600542170
  USCEXX One-electron energy         -139.289061593306
  USCEXX Two-electron energy           39.881461051136
  USCEXX Nuclear energy                 0.000000000000
  USCEXX Coulomb energy                49.916926111076
  USCEXX Exchange energy              -10.035465059939


 **********************************************************************************************************************************
 DATASETS  * FILE   NREC   LENGTH (MB)   RECORD NAMES
              1      19      104.20       500      610      700      900      950      970     1000      129      960     1100   
                                          VAR    BASINP    GEOM    SYMINP    ZMAT    AOBASIS   BASIS     P2S    ABASIS      S 
                                         1400     1410     1200     1210     1080     1600     1650     1300     1700   
                                           T        V       H0       H01     AOSYM     SMH    MOLCAS    ERIS     OPER   

              2       5        3.15       700     1000      520     2200     2201   
                                         GEOM     BASIS   MCVARS     UHF    USCEXX    

              4       4        7.85      2900     3000     3100     3200   

 PROGRAMS   *        TOTAL      ACFD       INT    DF-UHF       INT
 CPU TIMES  *       154.88    149.50      4.62      0.48      0.20
 REAL TIME  *       153.68 SEC
 DISK USED  *       313.37 MB
 **********************************************************************************************************************************

 ACFD/aug-cc-pWCV5Z energy=    -99.407600542170

            ACFD          DF-UHF
    -99.40760054    -99.40401266
 **********************************************************************************************************************************
 Molpro calculation terminated
