MPI startup(): Warning: I_MPI_PMI_LIBRARY will be ignored since the hydra process manager was found
[0] MPI startup(): Intel(R) MPI Library, Version 2021.8  Build 20221129 (id: 339ec755a1)
[0] MPI startup(): Copyright (C) 2003-2022 Intel Corporation.  All rights reserved.
[0] MPI startup(): library kind: release
[0] MPI startup(): libfabric version: 1.11.0-impi
[0] MPI startup(): libfabric provider: mlx
[0] MPI startup(): File "/opt/intel/oneapi/intelpython/latest/etc/tuning_skx_shm-ofi_mlx.dat" not found
[0] MPI startup(): Load tuning file: "/opt/intel/oneapi/intelpython/latest/etc/tuning_skx_shm-ofi.dat"
[0] MPI startup(): Rank    Pid      Node name  Pin cpu
[0] MPI startup(): 0       15716    node051    {0,1,2,3,4,5,6,7,8,9,10,11,12,13,14,15,16,17,18,19,20,21,22,23,24,25,26,27}
[0] MPI startup(): I_MPI_ROOT=/opt/intel/oneapi/intelpython/latest
[0] MPI startup(): I_MPI_HYDRA_TOPOLIB=hwloc
[0] MPI startup(): I_MPI_PIN_DOMAIN=28
[0] MPI startup(): I_MPI_INTERNAL_MEM_POLICY=default
[0] MPI startup(): I_MPI_DEBUG=5
[0] MPI startup(): I_MPI_PMI_LIBRARY=/usr/lib64/libpmi.so.0

 Working directory              : /scratch/trushin/246446/molpro.DlZFselH4g/
 Global scratch directory       : /scratch/trushin/246446/molpro.DlZFselH4g/
 Wavefunction directory         : /home/trushin/wfu/
 Main file repository           : /scratch/trushin/246446/molpro.DlZFselH4g/

 id        : chemieegortrushi

 Nodes     nprocs
 node051      1
 GA implementation: MPI file
 GA implementation (serial work in mppx): MPI file

 Using customized tuning parameters: mindgm=1; mindgv=20; mindgc=4; mindgr=1; noblas=0; minvec=7
 default implementation of scratch files=df  


 Variables initialized (1040), CPU time= 0.01 sec
 basis={
 default,aug-cc-pwCVTZ
 }
 
 symmetry,nosym
 angstrom
 geometry={
 1
 B     0.0000000    0.0000000    0.00000000
 }
 
 
 hf
 {fci; dm,3000.2;core}
 {matrop; export,3000.2,dm.dat,status=rewind,prec=sci}
 
 Commands initialized (841), CPU time= 0.02 sec, 717 directives.
 Default parameters read. Elapsed time= 0.24 sec

 Checking input...
 Passed
1


                                         ***  PROGRAM SYSTEM MOLPRO  ***
                                       Copyright, TTI GmbH Stuttgart, 2015
                                    Version 2023.2 linked                         


 **********************************************************************************************************************************
 LABEL *                                                                                                                                                                 
  (28 PROC) 64 bit serial version                                                        DATE: 10-Sep-23          TIME: 02:26:17  
 **********************************************************************************************************************************

 SHA1:             6c908c6a91734c8a15b0f00245809d56451c31b3
 **********************************************************************************************************************************

 Memory per process:      6000 MW
 Total memory per node:   6000 MW

 GA preallocation disabled
 GA check disabled

 Variable memory set to 6000.0 MW

 SETTING BASIS          =    AUG-CC-PWCVTZ
 ZSYMEL=NOSYM
 ZUNIT=ANG
 

 Geometry recognized as XYZ



 Recomputing integrals since basis changed


 Using spherical harmonics

 Library entry B      S aug-cc-pwCVTZ        selected for orbital group  1
 Library entry B      P aug-cc-pwCVTZ        selected for orbital group  1
 Library entry B      D aug-cc-pwCVTZ        selected for orbital group  1
 Library entry B      F aug-cc-pwCVTZ        selected for orbital group  1


 PROGRAM * SEWARD (Integral evaluation for generally contracted gaussian basis sets)     Author: Roland Lindh, 1990

 Geometry written to block  1 of record 700

 Orientation using atomic masses  
 Molecule type: Atom
 Rotational constants:       0.0000000      0.0000000      0.0000000 GHz  (calculated with average atomic masses)

 Point group  C1  



 ATOMIC COORDINATES

 NR  ATOM    CHARGE       X              Y              Z

   1  B       5.00    0.000000000    0.000000000    0.000000000

 NUCLEAR CHARGE:                    5
 NUMBER OF PRIMITIVE AOS:          81
 NUMBER OF SYMMETRY AOS:           71
 NUMBER OF CONTRACTIONS:           59   (   59A   )
 NUMBER OF INNER CORE ORBITALS:     0   (    0A   )
 NUMBER OF OUTER CORE ORBITALS:     1   (    1A   )
 NUMBER OF VALENCE ORBITALS:        4   (    4A   )


 NUCLEAR REPULSION ENERGY    0.00000000

 EXTRA SYMMETRY OF AOS IN SYMMETRY 1:   1 1 1 1 1 1 1 2 3 4   2 3 4 2 3 4 2 3 4 2   3 4 2 3 4 5 6 7 8 9   5 6 7 8 9 5 6 7 8 9
                                        5 6 7 8 91011121314  151610111213141516

 Eigenvalues of metric

         1 0.496E-02 0.152E-01 0.152E-01 0.152E-01 0.181E-01 0.705E-01 0.186E+00 0.186E+00


 Contracted 2-electron integrals neglected if value below      1.0D-11
 AO integral compression algorithm  1   Integral accuracy      1.0D-11

     2.097 MB (compressed) written to integral file ( 16.7%)


 NUMBER OF SORTED TWO-ELECTRON INTEGRALS:    1567335.     BUFFER LENGTH:  32768
 NUMBER OF SEGMENTS:   1  SEGMENT LENGTH:    1567335      RECORD LENGTH: 524288

 Memory used in sort:       2.12 MW

 SORT1 READ     1711873. AND WROTE      166515. INTEGRALS IN      1 RECORDS. CPU TIME:     0.25 SEC, REAL TIME:     0.01 SEC
 SORT2 READ      166515. AND WROTE     1567335. INTEGRALS IN      8 RECORDS. CPU TIME:     1.59 SEC, REAL TIME:     0.06 SEC

 FILE SIZES:   FILE 1:    32.2 MBYTE,  FILE 4:     4.3 MBYTE,   TOTAL:     36.5 MBYTE

 OPERATOR DM      FOR CENTER  0  COORDINATES:    0.000000    0.000000    0.000000


 **********************************************************************************************************************************
 DATASETS  * FILE   NREC   LENGTH (MB)   RECORD NAMES
              1      19       29.74       500      610      700      900      950      970     1000      129      960     1100   
                                          VAR    BASINP    GEOM    SYMINP    ZMAT    AOBASIS   BASIS     P2S    ABASIS      S 
                                         1400     1410     1200     1210     1080     1600     1650     1300     1700   
                                           T        V       H0       H01     AOSYM     SMH    MOLCAS    ERIS     OPER   

 PROGRAMS   *        TOTAL       INT
 CPU TIMES  *        12.19     11.99
 REAL TIME  *         3.81 SEC
 DISK USED  *        35.10 MB
 **********************************************************************************************************************************


 Program * Restricted Hartree-Fock

 Orbital guess generated from atomic densities. Full valence occupancy:    5

 Initial alpha occupancy:   3
 Initial beta  occupancy:   2

 NELEC=    5   SYM=1   MS2= 1   THRE=1.0D-08   THRD=3.2D-06   THRG=3.2D-06  HFMA2=F  DIIS_START=2   DIIS_MAX=10   DIIS_INCORE=F

 Level shifts:    0.00 (CLOSED)    0.00 (OPEN)    0.30 (GAP_MIN)

 ITER           ETOT              DE          GRAD        DDIFF     DIIS  NEXP   TIME(IT)  TIME(TOT)  DIAG
   1      -24.50058528     -24.50058528     0.00D+00     0.66D-01     0     0       0.42      0.69    start
   2      -24.52413860      -0.02355332     0.50D-02     0.11D-01     1     0       2.49      3.18    diag2
   3      -24.52726707      -0.00312848     0.14D-02     0.25D-02     2     0       0.31      3.49    diag2
   4      -24.52817137      -0.00090430     0.72D-03     0.25D-02     3     0       0.31      3.80    diag2
   5      -24.52821457      -0.00004320     0.17D-03     0.96D-03     4     0       0.30      4.10    diag2
   6      -24.52821518      -0.00000061     0.25D-04     0.11D-03     5     0       0.29      4.39    diag2
   7      -24.52821518      -0.00000000     0.21D-05     0.93D-05     6     0       0.31      4.70    diag2
   8      -24.52821518      -0.00000000     0.20D-06     0.16D-05     7     0       0.31      5.01    fixocc
   9      -24.52821518      -0.00000000     0.19D-07     0.34D-07     0     0       0.29      5.30    diag

 Final alpha occupancy:   3
 Final beta  occupancy:   2
 
 !RHF STATE 1.1 Energy                -24.528215178542
  RHF One-electron energy             -32.365236610658
  RHF Two-electron energy               7.837021432116
  RHF Kinetic energy                   24.526412439530
  RHF Nuclear energy                    0.000000000000
  RHF Virial quotient                  -1.000073501945
 
 !RHF STATE 1.1 Dipole moment          -0.00000000     0.00000000    -0.00000000
 Dipole moment /Debye                  -0.00000000     0.00000000    -0.00000000

 Orbital energies:

           1.1          2.1          3.1          4.1          5.1
     -7.695713    -0.495012    -0.309742     0.022687     0.022687


 HOMO      3.1    -0.309742 =      -8.4285eV
 LUMO      4.1     0.022687 =       0.6173eV
 LUMO-HOMO         0.332429 =       9.0458eV

 Orbitals saved in record  2100.2


 **********************************************************************************************************************************
 DATASETS  * FILE   NREC   LENGTH (MB)   RECORD NAMES
              1      19       29.74       500      610      700      900      950      970     1000      129      960     1100   
                                          VAR    BASINP    GEOM    SYMINP    ZMAT    AOBASIS   BASIS     P2S    ABASIS      S 
                                         1400     1410     1200     1210     1080     1600     1650     1300     1700   
                                           T        V       H0       H01     AOSYM     SMH    MOLCAS    ERIS     OPER   

              2       4        0.49       700     1000      520     2100   
                                         GEOM     BASIS   MCVARS     RHF  

 PROGRAMS   *        TOTAL    HF-SCF       INT
 CPU TIMES  *        17.63      5.42     11.99
 REAL TIME  *         4.02 SEC
 DISK USED  *        35.10 MB
 **********************************************************************************************************************************


 PROGRAM * FCI (Full CI)     Author: P.J. Knowles, 1984

 Density matrix to be saved to 3000.2
 
 Molecular orbitals read from record     2100.2  Type=RHF/CANONICAL  
 
 Frozen orbitals:              0 (  0  0  0  0  0  0  0  0)
 Active orbitals:             59 ( 59  0  0  0  0  0  0  0)
 Active electrons:             5
 Spin quantum number:          0.5
 Orbital pairs:                  1770       0       0       0       0       0       0       0
 Strings:                       32509       0       0       0       0       0       0       0
                                 1711       0       0       0       0       0       0       0
 Determinants:                       55622899               0               0               0
                                            0               0               0               0

 Load integrals               19.6 sec
 Transform integrals          23.5 sec
 Storage for integrals:        3139921
 Remaining memory:           *********

 Core energy:               0.00000000
 Run Hamiltonian processor DAVIDSON
 Symmetry:                   1
 Trial vector:                  0.00
 Result vector:                 0.00
 Maximum iterations:           90
 Convergence threshold:         0.0000100
 RHS vector:                    0.00
 Hamiltonian shift:             0.0000000
 Output threshold:              0.0500000
 Options:                        0
 Number of roots:             1

 Hamiltonian diagonaliser entered at time     32.68

 Initial configuration generated:
       1      1.0000000    -24.5282152

 It  Tr    CPU  Convergence   Energy       Pop     dE(next)

  1   1  511.4  1.00000000   -24.52821518
                                           0.00 -0.11344721 -0.11344677
  2   1  890.0  0.22818079   -24.63441191
                                           0.00 -0.00746055 -0.00745629
  3   1 1398.8  0.05864911   -24.64230880
                                           0.01 -0.00089340 -0.00089096
  4   1 2099.0  0.02745131   -24.64345923
                                           0.01 -0.00009147 -0.00009107
  5   1 3076.6  0.00699786   -24.64355150
                                           0.02 -0.00000752 -0.00000746
  6   1 4337.7  0.00224601   -24.64355952
                                           0.02 -0.00000077 -0.00000076
  7   1 6011.2  0.00068129   -24.64356028
                                           0.04 -0.00000008 -0.00000008
  8   1 8300.8  0.00023583   -24.64356037
                                           0.04 -0.00000001 -0.00000001
  9   111022.8  0.00009033   -24.64356038
                                           0.06 -0.00000000 -0.00000000
 10   114466.5  0.00003394   -24.64356038
                                           0.07 -0.00000000 -0.00000000
 11   118451.3  0.00001458   -24.64356038
                                           0.08 -0.00000000 -0.00000000
 12   122949.0  0.00000593   -24.64356038


RESULTS FOR STATE  1.1
=====================

 Correlation energy                    -0.115345204836
 !FCI STATE 1.1 Energy                -24.643560383378
 CI Vector (threshold= 0.500E-01)
       0.961255426609  1  2  3  1  2
      -0.055064153802  1  2 19  1  3
       0.063055640627  1  3  4  1  4
      -0.052553179034  1  3  4  1  8
       0.063055640628  1  3  5  1  5
      -0.052553179034  1  3  5  1  9
      -0.052788437824  1  3  8  1  4
       0.063105010704  1  3  8  1  8
      -0.052788437826  1  3  9  1  5
       0.063105010704  1  3  9  1  9
 /EOF
 !FCI STATE 1.1 Dipole moment           0.00000000     0.00000000    -0.00000000
 Dipole moment /Debye                   0.00000000     0.00000000    -0.00000000
 Density matrix dumped to 3000.2


 **********************************************************************************************************************************
 DATASETS  * FILE   NREC   LENGTH (MB)   RECORD NAMES
              1      19       29.74       500      610      700      900      950      970     1000      129      960     1100   
                                          VAR    BASINP    GEOM    SYMINP    ZMAT    AOBASIS   BASIS     P2S    ABASIS      S 
                                         1400     1410     1200     1210     1080     1600     1650     1300     1700   
                                           T        V       H0       H01     AOSYM     SMH    MOLCAS    ERIS     OPER   

              2       5        0.64       700     1000      520     2100     3000   
                                         GEOM     BASIS   MCVARS     RHF      FCI  

 PROGRAMS   *        TOTAL       FCI    HF-SCF       INT
 CPU TIMES  *     23051.36  23033.68      5.42     11.99
 REAL TIME  *     22521.04 SEC
 DISK USED  *        10.39 GB
 **********************************************************************************************************************************


 PROGRAM * MATROP


 Write dump record  3000.2 to file dm.dat

 Density matrix read from record         3000.2  Type=FCI/CHARGE  
 Density matrix read from record         3000.2  Type=FCI/SPIN  


 **********************************************************************************************************************************
 DATASETS  * FILE   NREC   LENGTH (MB)   RECORD NAMES
              1      19       29.74       500      610      700      900      950      970     1000      129      960     1100   
                                          VAR    BASINP    GEOM    SYMINP    ZMAT    AOBASIS   BASIS     P2S    ABASIS      S 
                                         1400     1410     1200     1210     1080     1600     1650     1300     1700   
                                           T        V       H0       H01     AOSYM     SMH    MOLCAS    ERIS     OPER   

              2       5        0.64       700     1000      520     2100     3000   
                                         GEOM     BASIS   MCVARS     RHF      FCI  

 PROGRAMS   *        TOTAL    MATROP       FCI    HF-SCF       INT
 CPU TIMES  *     23051.36      0.00  23033.68      5.42     11.99
 REAL TIME  *     22521.06 SEC
 DISK USED  *        10.39 GB
 **********************************************************************************************************************************

             FCI          HF-SCF
    -24.64356038    -24.52821518
 **********************************************************************************************************************************
 Molpro calculation terminated
