MPI startup(): Warning: I_MPI_PMI_LIBRARY will be ignored since the hydra process manager was found
[0] MPI startup(): Intel(R) MPI Library, Version 2021.8  Build 20221129 (id: 339ec755a1)
[0] MPI startup(): Copyright (C) 2003-2022 Intel Corporation.  All rights reserved.
[0] MPI startup(): library kind: release
[0] MPI startup(): libfabric version: 1.11.0-impi
[0] MPI startup(): libfabric provider: mlx
[0] MPI startup(): File "/opt/intel/oneapi/intelpython/latest/etc/tuning_skx_shm-ofi_mlx.dat" not found
[0] MPI startup(): Load tuning file: "/opt/intel/oneapi/intelpython/latest/etc/tuning_skx_shm-ofi.dat"
[0] MPI startup(): Rank    Pid      Node name  Pin cpu
[0] MPI startup(): 0       18940    node053    {0,1,2,3,4,5,6,7,8,9,10,11,12,13,14,15,16,17,18,19,20,21,22,23,24,25,26,27}
[0] MPI startup(): I_MPI_ROOT=/opt/intel/oneapi/intelpython/latest
[0] MPI startup(): I_MPI_HYDRA_TOPOLIB=hwloc
[0] MPI startup(): I_MPI_PIN_DOMAIN=28
[0] MPI startup(): I_MPI_INTERNAL_MEM_POLICY=default
[0] MPI startup(): I_MPI_DEBUG=5
[0] MPI startup(): I_MPI_PMI_LIBRARY=/usr/lib64/libpmi.so.0

 Working directory              : /scratch/trushin/246448/molpro.FLROy2bpy9/
 Global scratch directory       : /scratch/trushin/246448/molpro.FLROy2bpy9/
 Wavefunction directory         : /home/trushin/wfu/
 Main file repository           : /scratch/trushin/246448/molpro.FLROy2bpy9/

 id        : chemieegortrushi

 Nodes     nprocs
 node053      1
 GA implementation: MPI file
 GA implementation (serial work in mppx): MPI file

 Using customized tuning parameters: mindgm=1; mindgv=20; mindgc=4; mindgr=1; noblas=0; minvec=7
 default implementation of scratch files=df  


 Variables initialized (1040), CPU time= 0.01 sec
 basis={
 default,aug-cc-pwCVQZ
 }
 
 symmetry,nosym
 angstrom
 geometry={
 1
 B     0.0000000    0.0000000    0.00000000
 }
 
 
 hf
 {fci; dm,3000.2;core}
 {matrop; export,3000.2,dm.dat,status=rewind,prec=sci}
 
 Commands initialized (841), CPU time= 0.01 sec, 717 directives.
 Default parameters read. Elapsed time= 0.23 sec

 Checking input...
 Passed
1


                                         ***  PROGRAM SYSTEM MOLPRO  ***
                                       Copyright, TTI GmbH Stuttgart, 2015
                                    Version 2023.2 linked                         


 **********************************************************************************************************************************
 LABEL *                                                                                                                                                                 
  (28 PROC) 64 bit serial version                                                        DATE: 10-Sep-23          TIME: 02:36:27  
 **********************************************************************************************************************************

 SHA1:             6c908c6a91734c8a15b0f00245809d56451c31b3
 **********************************************************************************************************************************

 Memory per process:      6000 MW
 Total memory per node:   6000 MW

 GA preallocation disabled
 GA check disabled

 Variable memory set to 6000.0 MW

 SETTING BASIS          =    AUG-CC-PWCVQZ
 ZSYMEL=NOSYM
 ZUNIT=ANG
 

 Geometry recognized as XYZ



 Recomputing integrals since basis changed


 Using spherical harmonics

 Library entry B      S aug-cc-pwCVQZ        selected for orbital group  1
 Library entry B      P aug-cc-pwCVQZ        selected for orbital group  1
 Library entry B      D aug-cc-pwCVQZ        selected for orbital group  1
 Library entry B      F aug-cc-pwCVQZ        selected for orbital group  1
 Library entry B      G aug-cc-pwCVQZ        selected for orbital group  1


 PROGRAM * SEWARD (Integral evaluation for generally contracted gaussian basis sets)     Author: Roland Lindh, 1990

 Geometry written to block  1 of record 700

 Orientation using atomic masses  
 Molecule type: Atom
 Rotational constants:       0.0000000      0.0000000      0.0000000 GHz  (calculated with average atomic masses)

 Point group  C1  



 ATOMIC COORDINATES

 NR  ATOM    CHARGE       X              Y              Z

   1  B       5.00    0.000000000    0.000000000    0.000000000

 NUCLEAR CHARGE:                    5
 NUMBER OF PRIMITIVE AOS:         152
 NUMBER OF SYMMETRY AOS:          122
 NUMBER OF CONTRACTIONS:          109   (  109A   )
 NUMBER OF INNER CORE ORBITALS:     0   (    0A   )
 NUMBER OF OUTER CORE ORBITALS:     1   (    1A   )
 NUMBER OF VALENCE ORBITALS:        4   (    4A   )


 NUCLEAR REPULSION ENERGY    0.00000000

 EXTRA SYMMETRY OF AOS IN SYMMETRY 1:   1 1 1 1 1 1 1 1 1 2   3 4 2 3 4 2 3 4 2 3   4 2 3 4 2 3 4 2 3 4   2 3 4 5 6 7 8 9 5 6
                                        7 8 9 5 6 7 8 9 5 6   7 8 9 5 6 7 8 9 5 6   7 8 910111213141516  10111213141516101112
                                       13141516101112131415  16171819202122232425  171819202122232425

 Eigenvalues of metric

         1 0.493E-04 0.104E-02 0.107E-02 0.107E-02 0.107E-02 0.156E-01 0.476E-01 0.745E-01


 Contracted 2-electron integrals neglected if value below      1.0D-12
 AO integral compression algorithm  1   Integral accuracy      1.0D-12

     21.234 MB (compressed) written to integral file ( 15.5%)


 NUMBER OF SORTED TWO-ELECTRON INTEGRALS:   17973010.     BUFFER LENGTH:  32768
 NUMBER OF SEGMENTS:   2  SEGMENT LENGTH:   15997996      RECORD LENGTH: 524288

 Memory used in sort:      16.56 MW

 SORT1 READ    17015161. AND WROTE     1729594. INTEGRALS IN      6 RECORDS. CPU TIME:     2.46 SEC, REAL TIME:     0.09 SEC
 SORT2 READ     1729594. AND WROTE    17973010. INTEGRALS IN     81 RECORDS. CPU TIME:     0.77 SEC, REAL TIME:     0.27 SEC

 FILE SIZES:   FILE 1:    51.7 MBYTE,  FILE 4:    25.2 MBYTE,   TOTAL:     76.9 MBYTE

 OPERATOR DM      FOR CENTER  0  COORDINATES:    0.000000    0.000000    0.000000


 **********************************************************************************************************************************
 DATASETS  * FILE   NREC   LENGTH (MB)   RECORD NAMES
              1      19       40.07       500      610      700      900      950      970     1000      129      960     1100   
                                          VAR    BASINP    GEOM    SYMINP    ZMAT    AOBASIS   BASIS     P2S    ABASIS      S 
                                         1400     1410     1200     1210     1080     1600     1650     1300     1700   
                                           T        V       H0       H01     AOSYM     SMH    MOLCAS    ERIS     OPER   

 PROGRAMS   *        TOTAL       INT
 CPU TIMES  *        24.05     23.86
 REAL TIME  *         4.30 SEC
 DISK USED  *        73.68 MB
 **********************************************************************************************************************************


 Program * Restricted Hartree-Fock

 Orbital guess generated from atomic densities. Full valence occupancy:    5

 Initial alpha occupancy:   3
 Initial beta  occupancy:   2

 NELEC=    5   SYM=1   MS2= 1   THRE=1.0D-08   THRD=3.2D-06   THRG=3.2D-06  HFMA2=F  DIIS_START=2   DIIS_MAX=10   DIIS_INCORE=F

 Level shifts:    0.00 (CLOSED)    0.00 (OPEN)    0.30 (GAP_MIN)

 ITER           ETOT              DE          GRAD        DDIFF     DIIS  NEXP   TIME(IT)  TIME(TOT)  DIAG
   1      -24.50113979     -24.50113979     0.00D+00     0.36D-01     0     0       4.26      7.87    start
   2      -24.52485565      -0.02371586     0.36D-02     0.49D-02     1     0       4.26     12.13    diag2
   3      -24.52801981      -0.00316416     0.10D-02     0.14D-02     2     0       4.15     16.28    diag2
   4      -24.52893731      -0.00091750     0.53D-03     0.15D-02     3     0       4.25     20.53    diag2
   5      -24.52898219      -0.00004488     0.12D-03     0.44D-03     4     0       4.20     24.73    diag2
   6      -24.52898284      -0.00000065     0.19D-04     0.49D-04     5     0       4.22     28.95    diag2
   7      -24.52898284      -0.00000000     0.15D-05     0.31D-05     6     0       4.16     33.11    diag2
   8      -24.52898284      -0.00000000     0.16D-06     0.45D-06     0     0       4.20     37.31    fixocc

 Final alpha occupancy:   3
 Final beta  occupancy:   2
 
 !RHF STATE 1.1 Energy                -24.528982841017
  RHF One-electron energy             -32.367390094666
  RHF Two-electron energy               7.838407253649
  RHF Kinetic energy                   24.528707895845
  RHF Nuclear energy                    0.000000000000
  RHF Virial quotient                  -1.000011209118
 
 !RHF STATE 1.1 Dipole moment           0.00000000    -0.00000000     0.00000000
 Dipole moment /Debye                   0.00000000    -0.00000000     0.00000000

 Orbital energies:

           1.1          2.1          3.1          4.1          5.1
     -7.695499    -0.494827    -0.309925     0.021698     0.021698


 HOMO      3.1    -0.309925 =      -8.4335eV
 LUMO      4.1     0.021698 =       0.5904eV
 LUMO-HOMO         0.331623 =       9.0239eV

 Orbitals saved in record  2100.2


 **********************************************************************************************************************************
 DATASETS  * FILE   NREC   LENGTH (MB)   RECORD NAMES
              1      19       40.07       500      610      700      900      950      970     1000      129      960     1100   
                                          VAR    BASINP    GEOM    SYMINP    ZMAT    AOBASIS   BASIS     P2S    ABASIS      S 
                                         1400     1410     1200     1210     1080     1600     1650     1300     1700   
                                           T        V       H0       H01     AOSYM     SMH    MOLCAS    ERIS     OPER   

              2       4        0.76       700     1000      520     2100   
                                         GEOM     BASIS   MCVARS     RHF  

 PROGRAMS   *        TOTAL    HF-SCF       INT
 CPU TIMES  *        61.52     37.46     23.86
 REAL TIME  *         5.72 SEC
 DISK USED  *        73.68 MB
 **********************************************************************************************************************************


 PROGRAM * FCI (Full CI)     Author: P.J. Knowles, 1984

 Density matrix to be saved to 3000.2
 
 Molecular orbitals read from record     2100.2  Type=RHF/CANONICAL  
 
 Frozen orbitals:              0 (  0  0  0  0  0  0  0  0)
 Active orbitals:            109 (109  0  0  0  0  0  0  0)
 Active electrons:             5
 Spin quantum number:          0.5
 Orbital pairs:                  5995       0       0       0       0       0       0       0
 Strings:                      209934       0       0       0       0       0       0       0
                                 5886       0       0       0       0       0       0       0
 Determinants:                     1235671524               0               0               0
                                            0               0               0               0

 Load integrals               62.2 sec
 Transform integrals          68.9 sec
 Storage for integrals:       35963896
 Remaining memory:           *********

 Core energy:               0.00000000
 Run Hamiltonian processor DAVIDSON
 Symmetry:                   1
 Trial vector:                  0.00
 Result vector:                 0.00
 Maximum iterations:           90
 Convergence threshold:         0.0000100
 RHS vector:                    0.00
 Hamiltonian shift:             0.0000000
 Output threshold:              0.0500000
 Options:                        0
 Number of roots:             1

 Hamiltonian diagonaliser entered at time    209.64

 Initial configuration generated:
       1      1.0000000    -24.5289828

 It  Tr    CPU  Convergence   Energy       Pop     dE(next)

  1   132447.0  1.00000000   -24.52898284
                                           0.00 -0.11964396 -0.11964391
  2   156667.5  0.22323534   -24.64042853
                                           0.00 -0.00809351 -0.00809207
  3   187317.3  0.05891488   -24.64895547
                                           0.00 -0.00103246 -0.00103128
  4   1*******  0.02916968   -24.65030593
                                           0.00 -0.00011573 -0.00011550
  5   1*******  0.00753616   -24.65042459
                                           0.01 -0.00000970 -0.00000967
  6   1*******  0.00249490   -24.65043526
                                           0.01 -0.00000098 -0.00000097
  7   1*******  0.00073005   -24.65043624
                                           0.02 -0.00000010 -0.00000010
  8   1*******  0.00027171   -24.65043636
                                           0.03 -0.00000001 -0.00000001
  9   1*******  0.00010649   -24.65043637
                                           0.03 -0.00000000 -0.00000000
 10   1*******  0.00004344   -24.65043638
                                           0.04 -0.00000000 -0.00000000
 11   1*******  0.00001567   -24.65043638
                                           0.06 -0.00000000 -0.00000000
 12   1*******  0.00000664   -24.65043638


RESULTS FOR STATE  1.1
=====================

 Correlation energy                    -0.121453535241
 !FCI STATE 1.1 Energy                -24.650436376258
 CI Vector (threshold= 0.500E-01)
       0.961522981771  1  2  3  1  2
      -0.052413895775  1  2 26  1  3
       0.057450218503  1  3  4  1  4
      -0.058916350396  1  3  4  1  9
       0.057450218503  1  3  5  1  5
      -0.058916350396  1  3  5  1  8
      -0.059138105684  1  3  8  1  5
       0.062248442922  1  3  8  1  8
      -0.059138105683  1  3  9  1  4
       0.062248442921  1  3  9  1  9
 /EOF
 !FCI STATE 1.1 Dipole moment          -0.00000000    -0.00000000     0.00000000
 Dipole moment /Debye                  -0.00000000    -0.00000000     0.00000000
 Density matrix dumped to 3000.2


 **********************************************************************************************************************************
 DATASETS  * FILE   NREC   LENGTH (MB)   RECORD NAMES
              1      19       40.07       500      610      700      900      950      970     1000      129      960     1100   
                                          VAR    BASINP    GEOM    SYMINP    ZMAT    AOBASIS   BASIS     P2S    ABASIS      S 
                                         1400     1410     1200     1210     1080     1600     1650     1300     1700   
                                           T        V       H0       H01     AOSYM     SMH    MOLCAS    ERIS     OPER   

              2       5        1.03       700     1000      520     2100     3000   
                                         GEOM     BASIS   MCVARS     RHF      FCI  

 PROGRAMS   *        TOTAL       FCI    HF-SCF       INT
 CPU TIMES  *   2149785.442149723.87     37.46     23.86
 REAL TIME  *   2143523.73 SEC
 DISK USED  *       230.20 GB
 **********************************************************************************************************************************


 PROGRAM * MATROP


 Write dump record  3000.2 to file dm.dat

 Density matrix read from record         3000.2  Type=FCI/CHARGE  
 Density matrix read from record         3000.2  Type=FCI/SPIN  


 **********************************************************************************************************************************
 DATASETS  * FILE   NREC   LENGTH (MB)   RECORD NAMES
              1      19       40.07       500      610      700      900      950      970     1000      129      960     1100   
                                          VAR    BASINP    GEOM    SYMINP    ZMAT    AOBASIS   BASIS     P2S    ABASIS      S 
                                         1400     1410     1200     1210     1080     1600     1650     1300     1700   
                                           T        V       H0       H01     AOSYM     SMH    MOLCAS    ERIS     OPER   

              2       5        1.03       700     1000      520     2100     3000   
                                         GEOM     BASIS   MCVARS     RHF      FCI  

 PROGRAMS   *        TOTAL    MATROP       FCI    HF-SCF       INT
 CPU TIMES  *   2149785.45      0.002149723.87     37.46     23.86
 REAL TIME  *   2143523.75 SEC
 DISK USED  *       230.20 GB
 **********************************************************************************************************************************

             FCI          HF-SCF
    -24.65043638    -24.52898284
 **********************************************************************************************************************************
 Molpro calculation terminated
